<?xml version="1.0"?>
<VTKFile type="UnstructuredGrid" version="0.1" byte_order="LittleEndian" header_type="UInt32" compressor="vtkZLibDataCompressor">
  <UnstructuredGrid>
    <Piece NumberOfPoints="5137" NumberOfCells="2623">
      <PointData Scalars="Spannung:Lotrechte Spannung XX">
        <DataArray type="Float32" Name="Spannung:Lotrechte Spannung XX" format="ascii" RangeMin="-0.10266996175" RangeMax="0.20041494071">
          -0.014635542408 -0.014635542408 -0.030574172735 -0.031195431948 -0.031195431948 -0.029270913452
          -0.039648007601 -0.039648007601 -0.035665806383 -0.020566990599 -0.020566990599 -0.026650745422
          -0.050839010626 -0.050839010626 -0.04189036414 -0.055602692068 -0.055602692068 -0.055765833706
          -0.0012152129784 4.5276268793e-05 0.014264173806 0.035299357027 0.019850639626 0.0165757332
          0.0015145249199 0.024295236915 0.024354722351 -0.017498442903 -0.016652930528 0.0011820601067
          1.5599666767e-06 0.0038402595092 -0.0086397891864 -0.012573936023 0.00062315480318 0.026988830417
          0.018259473145 0.012805596925 -0.033274199814 -0.033557545394 -0.032117411494 0.0096785984933
          0.034474745393 0.013237400912 0.028044756502 0.014307057485 -0.036810368299 0.072905272245
          0.037338566035 0.05119984597 0.038212388754 0.045951157808 0.061975032091 0.019779859111
          0.058995831758 0.082307308912 0.024917837232 0.037729036063 0.014774463139 0.084969654679
          0.092554047704 0.018800405785 -0.0076608923264 0.063472338021 0.044346164912 0.0012193070725
          -0.01336888317 0.01081971731 0.031063809991 0.021774470806 0.034465748817 0.034041956067
          0.0046410518698 -0.0019584777765 0.012870164588 -0.018362522125 -0.016379555687 -0.0027931078803
          -0.0011105441954 -0.0051517514512 -0.015619761311 -0.0090445103124 -0.0057982164435 -0.0023143014405
          -0.0016010252293 -0.0013299145503 -0.0036199013703 0.0014831284061 0.00020640382718 -0.00083422585158
          0.026481050998 0.025381285697 0.019681986421 0.019344992936 0.0083384858444 0.00032847071998
          0.0060695889406 0.030542943627 0.03263758868 0.032244745642 0.030963623896 0.035059418529
          0.020719224587 0.0060699996538 -0.033972576261 -0.03201354295 0.011069507338 -0.0038218630943
          0.012269380502 0.024945024401 0.029386878014 0.0069755255245 -0.0012299099471 0.0066079972312
          0.029847409576 0.01509778481 -0.03277303651 -0.033113993704 0.050621636212 0.049967959523
          0.048813115805 0.039623469114 0.050996243954 0.070387713611 0.0016177537618 0.0010021959897
          0.00052074011182 0.0030003362335 0.020918680355 0.022965781391 0.033147372305 0.034944631159
          0.03747215122 0.032242942601 0.021441364661 0.0092358337715 0.00080756103853 0.0021604902577
          0.01149485074 0.020435268059 0.027459951118 -0.0064984941855 -0.002420226112 -0.0021385995205
          -0.003926506266 -0.0049302750267 -0.010768674314 0.02024757117 0.024073487148 0.02020932734
          0.018580976874 0.015708433464 0.017722416669 0.017553672194 0.016623366624 0.018975837156
          0.018541326746 0.022870864719 0.021403802559 0.01977785863 -0.00069865229307 0.00033989315853
          -0.00074685225263 -0.00048588315258 -7.9890160123e-05 0.017133755609 0.018828848377 0.017527746037
          0.013545557857 0.010245375335 0.0087100630626 0.0080238040537 0.0076558394358 0.012458401732
          0.013182049617 0.01922901161 -0.010581433773 -0.010443945415 -0.0081941867247 -0.0020989459008
          -0.0046496163122 -0.010354834609 -0.01521276962 -0.019607519731 0.019325116649 0.019972475246
          0.022727446631 0.020389810205 0.016826199368 -0.013666859828 -0.015909451991 -0.015631005168
          -0.014234540984 -0.013959650882 -0.0082581751049 -0.00083951232955 -6.4757266955e-05 -0.0027814463247
          0.00067019305425 0.00062062108191 0.0012621956412 0.0025415746495 0.0017607532209 0.011019721627
          0.005999149289 -0.033168502152 -0.019131459296 -0.025300556794 -0.0019731726497 0.0016584007535
          0.002532720333 0.0026363681536 0.0023517517839 0.0018096995773 0.00031137946644 0.0010938155465
          0.022555565462 0.023411098868 0.024994838983 0.026747107506 0.026581583545 0.028583712876
          0.034229598939 -0.027432918549 -0.032795358449 -0.048920713365 0.029959151521 0.02982920222
          0.031406763941 0.032665513456 0.03358265385 0.035872973502 0.042103543878 0.051697205752
          0.017407489941 0.012412987649 0.012388299219 0.0091055287048 0.010464251973 0.012855453417
          0.014708500355 0.019348613918 0.021431606263 0.021818611771 0.021547371522 -0.0041102431715
          -0.00054859707598 0.00016810487432 0.0012441311264 0.00021026332979 -0.00018275607727 -0.0021425134037
          -0.055795576423 -0.04335789755 -0.047866687179 0.014929142781 0.015725174919 0.016661895439
          0.018300794065 0.019594131038 0.021132789552 0.02420142293 0.017574127764 0.019295340404
          0.013588920236 0.017077501863 0.017745479941 0.015985846519 0.022667285055 0.023393338546
          0.024911586195 0.026615105569 0.02850378491 0.030928149819 0.036035630852 -0.012312549166
          -0.010703771375 -0.011000990868 0.016426052898 0.0099129192531 0.014974380843 0.020361000672
          0.024909386411 0.029387453571 0.10670199245 -0.0099034132436 0.015083894134 0.012347516604
          0.0096346829087 0.0070093446411 0.010920907371 -0.019989911467 -0.01803733781 -0.019774887711
          -0.0039711194113 -0.0013088015839 -0.0035210575443 -0.011357952841 -0.01785277389 -0.015683725476
          -0.018893515691 -0.0097219701856 -0.013856813312 -0.014065841213 -0.017796695232 -0.018373759463
          -0.02688469924 -0.025291197002 -0.015601363033 -0.0058748880401 -0.0062828790396 -0.0061854957603
          -0.024290362373 -0.016928436235 -0.014295771718 -0.0056191477925 -0.0047914134338 -0.010535198264
          -0.015197079629 -0.016849607229 -0.022411299869 -0.019753834233 0.021317722276 0.023514032364
          0.028310976923 0.013648687862 0.0096895797178 0.017002077773 0.024165386334 0.029026441276
          0.035205230117 0.04770956561 -0.0093662869185 0.0031646746211 0.0027411552146 0.0010404653149
          -0.0017024455592 0.00031246253639 0.0081182140857 0.007379507646 0.005460459739 0.0026049758308
          0.0025655066129 0.00042199678137 0.0004296474508 0.00091098831035 -0.0022124862298 -5.7033794292e-05
          -0.0025225796271 -0.0016480003251 -0.00026906188577 -0.00050925591495 -0.01209094841 0.032647546381
          0.041031613946 0.03659036383 0.028728252277 0.020910203457 0.012818800285 0.017983047292
          0.027597617358 0.023652510718 0.018794851378 0.00064296176424 0.001418442931 0.00068547844421
          0.00028685262077 0.00077595713083 0.0014491812326 -0.0039325067773 0.01102281455 -0.011416998692
          -0.0038365237415 0.0058013326488 0.0010599670932 -0.0015235897154 -0.0051316614263 0.0096646286547
          0.0077636009082 0.0023757906165 -0.0027916119434 -0.0078701870516 -0.0034865895286 0.012121275999
          0.018178660423 0.0022790015209 0.0078383656219 0.024195646867 0.0058582867496 0.0044588204473
          0.0031748213805 0.00081742525799 -0.00103369914 -0.00016175908968 -0.00068193901097 -0.00047369193635
          0.023272650316 0.021905947477 0.020386792719 0.019003015012 0.017243316397 0.014470283873
          0.009945073165 0.0096160601825 0.0055810576305 0.0095381932333 0.0044228807092 0.0082363951951
          0.0062585431151 0.0097942305729 0.0076587600634 0.0080302795395 0.021958462894 0.022109707817
          0.017346698791 0.017200820148 0.021827740595 0.017212234437 0.02284389548 0.018875773996
          0.0068449876271 0.0046217176132 0.0017395339673 -0.00047017817269 -0.0017304107314 -0.0017376339529
          -0.00077282253187 0.0029714102857 0.018675476313 0.010325532407 0.0056922612712 0.0023841795046
          0.00073589436943 0.00051371922018 0.0074822045863 0.011504060589 0.010346516035 0.00073471758515
          0.0016944011441 0.031563077122 -0.004580992274 0.039284925908 0.023069132119 0.0084430351853
          0.028621865436 0.028217367828 0.028116518632 0.027918996289 0.02560256049 0.030759628862
          0.032991591841 0.031247159466 0.0037986289244 0.0076908622868 0.0089266458526 0.010636180639
          0.0084533179179 0.011617915705 0.0093382317573 0.012345143594 0.011850920506 0.016125049442
          0.016823798418 0.022123269737 0.023085331544 0.025151029229 0.026680670679 0.02707741037
          0.0031977184117 0.002684218809 0.0017199300928 0.0036025496665 0.00050236878451 0.0013225044822
          0.0013672959758 0.005003833212 0.015220065601 0.025028845295 0.024604819715 0.020785622299
          0.015280725434 0.02147924155 0.022121584043 0.015840250999 0.0059950700961 0.0042757797055
          0.0071046659723 0.0092655345798 0.012719319202 0.0177625902 0.0034887986258 0.0032459662762
          0.0068188467994 0.0081382282078 0.0099806636572 0.027426989749 0.021208930761 0.052095666528
          0.051240380853 0.054699394852 0.047584332526 0.018166461959 0.020658208057 0.019778033718
          0.023158475757 0.023838991299 0.023059003055 0.024415500462 0.026765167713 0.028131829575
          0.030486119911 0.037495214492 0.031902968884 0.030439605936 0.030010396615 0.029524657875
          0.026734862477 0.022894790396 0.024772435427 0.028305530548 0.029739538208 0.032491575927
          0.030899472535 0.031333856285 0.026670504361 0.026795890182 0.029934616759 0.02970020473
          0.028568897396 0.033687390387 0.031394127756 0.040534541011 0.03649391979 0.041496112943
          0.046681806445 0.048303365707 0.026680840179 0.026686822996 0.027023846284 0.03108850494
          0.033401440829 0.029832052067 0.028816869482 0.030308865011 0.030100820586 0.030188329518
          0.032198548317 0.037672694772 0.042196501046 0.039765160531 0.02763989009 0.030081685632
          0.033540986478 0.036702822894 0.029265569523 0.030738200992 0.008782566525 0.015872148797
          0.0098793460056 0.019392572343 0.032219048589 0.024334447458 0.046972349286 0.01191313751
          0.0094609158114 0.0084430566058 0.0077133574523 0.056182499975 0.028314407915 0.016262164339
          0.0077589675784 0.01231291797 0.021407075226 0.013512575068 0.031430095434 0.015297660604
          0.023077065125 0.017146296799 -0.024256523699 -0.016233904287 -0.0081755025312 -0.00080878660083
          -0.0025618902873 -0.0013906111708 -0.0021648164839 -0.0040463535115 -0.0067277001217 -0.013092722744
          -0.0023524700664 0.0029515854549 0.013983557001 0.022783985361 0.017443427816 -0.0066177849658
          -0.010019171983 -0.012247093953 -0.012082790025 -0.011283608153 0.020763156936 6.539781316e-05
          -0.0010033986764 -0.0059572560713 0.0031140113715 -0.0069818738848 0.0074184723198 -0.0084102116525
          -0.0013966567349 -0.01182393916 -0.017780464143 -0.0019161199452 -0.0034954636358 -0.0013579422375
          -0.00033779506339 -0.001991158817 -0.0024228747934 -0.0024635747541 -0.0023796923924 -0.009063036181
          -0.002544073388 -0.008445863612 9.7218478913e-05 0.0021085599437 0.021669598296 -0.0066953292117
          -0.0037964202929 0.00090417807223 0.0031453222036 0.042747851461 0.028823556378 0.020948367193
          0.010216546245 0.0029522704426 -0.0025090142153 0.011332471855 0.0028079145122 0.01114630606
          0.0045160190202 0.015099104494 0.0025355003309 -0.00010579160153 -0.00085300503997 -2.3586819225e-05
          -2.0337171009e-05 0.00099604157731 0.00089739065152 0.0079423943534 0.00085941841826 -0.023808499798
          -0.017425168306 0.021848952398 0.021383211017 0.018275842071 0.017756888643 0.012068049982
          0.012024645694 0.014027165249 0.013163241558 0.025367598981 0.022414872423 0.019437368959
          0.018969362602 0.001730429125 0.0014869385632 0.0027562258765 0.0023857031483 0.00025269656908
          -0.00069255521521 0.00058440002613 -0.00041410350241 -9.0230045316e-05 0.023416714743 0.024234041572
          0.027103107423 0.03088754043 -0.0053332536481 -0.0045035188086 -0.0040202974342 -0.0030490409117
          -0.0009243915556 -0.0026728436351 0.0011521311244 -0.0090127903968 -0.003425013274 -0.0020059803501
          0.00093237211695 -0.00093222543364 -0.011049334891 -0.01302700676 -0.0025054719299 -0.0057756276801
          -0.0027588908561 -0.0087554650381 -0.0093049257994 -0.0060843373649 -0.0034885364585 -0.019898362458
          -0.01936968416 -0.024034898728 -0.017474865541 -0.015707002953 -0.015546638519 -0.026993788779
          -0.018347753212 -0.017201403156 -0.020906468853 -0.016684766859 -0.019822595641 -0.017141703516
          -0.016978560016 -0.021138532087 -0.019700173289 -0.018979428336 -0.018069380894 -0.022887127474
          -0.020757872611 -0.016146007925 -0.01267651096 -0.016476493329 -0.010564417578 -0.013831782155
          -0.014032552019 -0.018067819998 -0.012614321895 -0.011931467801 -0.0011218759464 -0.001061430783
          -0.0031486458611 -0.0053823343478 -0.0070071294904 -0.004083479289 -0.0066249780357 -0.0081817321479
          -0.0073962211609 -0.0074784406461 -0.0084854178131 -0.010202914476 -0.0094678048044 -0.003652584739
          -0.0046831546351 -0.0060521569103 -0.0030274069868 -0.00046332750935 -0.0012883936288 -0.013502508402
          -0.0035904212855 -0.0022932083812 -0.0031226756983 -0.0011454778723 -0.004965195898 0.044693838805
          0.043897338212 0.056780718267 0.045016020536 0.083818517625 0.08667486161 0.016773954034
          0.018433617428 0.025998132303 0.030391458422 0.025418857113 0.021014586091 0.035242225975
          0.039669953287 0.025758756325 0.042454794049 0.043997377157 0.029577001929 0.031779676676
          0.026481945068 0.018851779401 0.026444772258 0.0085364952683 0.012611202896 0.0086997561157
          0.014031720348 0.014212221839 0.0090909572318 0.011483231559 0.0043088397942 0.0097662257031
          0.014611913823 0.0065023531206 0.012133988552 0.039998158813 0.035041056573 0.015607699752
          0.015849409625 0.0019907411188 0.015381437726 0.00054793478921 0.019706502557 0.043049916625
          0.04739620164 0.046994935721 0.012104991823 0.017211684957 -0.0051332828589 -0.0026057721116
          -0.0081772971898 -0.00061218504561 0.0027488488704 0.0016034910223 0.0011111911153 0.01279425621
          0.016634268686 0.0092967152596 0.0071579529904 0.017203047872 0.025412226096 0.0044602151029
          0.0029929811135 0.00027267137193 0.000764634402 0.026412503794 0.018831055611 0.0034080639016
          -0.0017214394175 -0.00049657508498 0.0019567192066 0.0016850968823 -0.0012450579088 0.0038306999486
          0.010585514829 -0.003094767686 0.013368262909 0.021736016497 0.026982152835 -0.001843090984
          -0.0036384616978 -0.0033897294197 0.0068888580427 0.0084212673828 0.0012349644676 0.0003528080706
          0.0038159873802 0.0074427588843 0.038046196103 0.024297406897 0.014425070025 0.028999179602
          0.040917072445 0.042327400297 0.039027120918 0.025370284915 0.0064385789447 -0.0092207454145
          0.0010729851201 -0.0011163289892 0.023168403655 0.0038003083318 0.033896319568 0.013930641115
          0.039522953331 0.03620705381 0.034036889672 0.057207990438 0.053489983082 0.018610553816
          0.014914677478 0.031083609909 0.039043501019 0.052605371922 0.063356883824 0.038766629994
          -0.0041283816099 0.018001724035 -0.009367113933 -0.014814876951 0.0041270893998 0.0092399166897
          -0.016677835956 -0.016677835956 -0.037699554116 -0.037699554116 -0.038399137557 -0.038399137557
          -0.027325848117 -0.027325848117 -0.050025120378 -0.050025120378 -0.065706245601 -0.065706245601
          5.1856321079e-05 0.024471528828 0.020516660064 0.020455775782 -0.00031288497848 -0.022882904857
          -0.025359857827 -0.015530087054 -0.0015403955476 -0.00098497606814 -0.012747593224 -0.024620885029
          -9.5611605502e-05 -0.011229361407 -0.0037365935277 -0.003058932256 -0.001706507639 0.00088792259339
          -5.9280890127e-05 0.00069211755181 0.0013396501308 0.0028414290864 -0.00074107729597 -0.0035080204252
          0.012718641199 0.029925931245 0.020068086684 0.020813742653 0.022946700454 0.0074472390115
          -2.8189784643e-05 -0.00023779968615 0.0086891110986 0.027809560299 0.037663925439 0.037827037275
          0.052925378084 0.053036320955 0.049013298005 0.017752749845 0.00037593851448 -0.029658535495
          -0.026088070124 -0.020696124062 -0.029349621385 0.0067234085873 0.00091535737738 0.0043110819533
          0.0049320464022 0.023972498253 0.022737560794 0.01533325389 0.025422910228 0.021814119071
          0.023375879973 0.0049348524772 0.0023897462524 -4.1970433813e-05 0.0032683815807 0.020587004721
          0.022052880377 0.0090385135263 0.028714392334 -0.028925701976 -0.027205016464 -0.027064226568
          -0.025301836431 0.011502555571 0.044931545854 0.038557130843 0.01262169797 0.039578571916
          0.037250053138 0.015286692418 0.050990149379 0.042262263596 0.0023023143876 0.03292857483
          0.042216658592 0.04540862143 0.065574809909 0.063983768225 0.048136051744 -0.0034666468855
          0.054598487914 0.08280005306 0.07997726649 0.07658521086 0.20041494071 -0.036179419607
          -0.00084227771731 0.0029212560039 0.0025003035553 -0.023433433846 0.076060861349 0.020345455036
          -0.00022550154245 -9.3446629762e-05 0.013085932471 0.046197924763 0.050525780767 0.051291130483
          0.051435191184 0.047559641302 0.036300014704 0.01649703458 0.00033989804797 -0.00024458876578
          0.0027702418156 0.018535636365 0.029313696548 0.020284032449 -0.0014321014751 0.0041071372107
          -0.0019476873567 -0.018770541996 0.0518665649 0.040983140469 -0.0011848262511 -0.0040756864473
          -0.00043490313692 -0.002277755877 -0.0033526981715 -0.0061510968953 -0.010966830887 0.032896216959
          0.018900327384 0.053505212069 0.026017330587 0.01373798959 -0.00046664284309 0.017873048782
          0.024973388761 0.015112039633 0.013366261497 0.0055030039512 0.011746354401 0.0078335916623
          0.0049961428158 0.004818122834 0.023048738018 0.015346777625 0.01200323645 0.015499423258
          0.016745381057 0.017959844321 0.018901411444 0.011911635287 0.013765172102 0.015302528627
          0.013702032156 0.016144350171 0.018984589726 0.015439573675 0.018139434978 0.01561267674
          0.018992947415 0.017718968913 0.013470714912 0.027368145064 0.017320714891 0.014033920132
          0.01746337302 0.012556291185 0.019135599956 0.016713121906 0.015711672604 0.01623846963
          0.016566770151 0.012240139768 0.017683710903 0.011180566624 0.01620223932 0.013885737397
          0.022266922519 0.016757102683 0.014396940358 0.015785863623 0.025316247717 0.015136964619
          0.012835399248 0.013348992914 0.014488868415 0.019036175683 0.014955058694 0.015637483448
          0.015445211902 0.013752908446 0.018193325028 0.013816616498 0.016410240903 0.017462683842
          0.013686543331 0.016720311716 0.015562275425 0.017087966204 0.01664696075 0.017249220982
          0.015979146585 0.003483743174 0.00019430801331 -0.00015932301176 -0.00097708974499 -0.00010382971959
          7.7488395618e-05 0.02959407866 0.019286431372 0.019046545029 0.020333183929 0.014607035555
          0.012911764905 0.010006169789 0.011505782604 0.010439326987 0.01336189732 0.01754655689
          0.025131972507 -0.012059701607 -0.01308122091 -0.0085244653746 -0.0041405777447 -0.0026883292012
          -0.0071836472489 -0.01482554432 -0.018706357107 -0.010685920715 0.024764336646 0.019936947152
          0.02188901417 0.024171283469 0.027384143323 0.023032519966 -0.016124047339 -0.026405936107
          -0.026314809918 -0.025659540668 -0.023534718901 -0.012342274189 -0.0050144712441 5.216993668e-05
          -0.00060161727015 -0.00012299112859 -0.011016232893 -0.0016112413723 0.00082708004629 0.0010638301028
          0.0015808726894 0.0027791005559 -0.0014961346751 -0.014741502702 0.017698414624 -0.015611163341
          0.013863572851 -0.039296168834 -0.030304284766 -0.027471221983 -0.045669257641 0.0049585932866
          0.0018232732546 0.0023079710081 0.0029168308247 0.0025157558266 0.0018978121225 0.0016561363591
          0.0015320725506 0.0046713519841 0.027215432376 0.023379527032 0.024491289631 0.026349447668
          0.026454495266 0.027557741851 0.031163098291 0.03772893548 -0.027817189693 -0.038688354194
          -0.039155807346 -0.079932034016 0.033547729254 0.029597599059 0.030863445252 0.032521668822
          0.032914344221 0.034407563508 0.038959108293 0.04615213722 0.057302117348 0.021025307477
          0.016503747553 0.012873592786 0.011972843669 0.015643076971 0.01781584695 0.019430970773
          0.021267786622 0.019373333082 0.020738968626 0.020458687097 0.03454021737 0.00087587308371
          -0.00055391679052 5.4171530792e-05 0.00062952964799 0.0011116063688 0.00037855247501 -0.00025947147515
          0.00028645098791 -0.10266996175 -0.053188432008 -0.050417665392 -0.098243862391 0.01366586145
          0.015407302417 0.016234325245 0.017525566742 0.019048837945 0.020656054839 0.023219315335
          0.031194284558 0.025350412354 0.016894355416 0.022861147299 0.016965974122 0.019289040938
          0.016075296327 0.022294707596 0.020713511854 0.023024849594 0.024186991155 0.025993920863
          0.027623806149 0.02958015725 0.033880103379 0.042513772845 -0.0094718337059 -0.015863405541
          -0.011560825631 -0.0057164616883 0.013053511269 0.011361725628 0.012981140055 0.017987072468
          0.023305205628 0.028715584427 0.052993554622 0.178517133 0.089770421386 0.018513604999
          0.014280199073 0.011068177409 0.0080763706937 0.0087343929335 0.0070364316925 -0.011251531541
          -0.019250085577 -0.024147823453 -0.015725746751 -0.0079492162913 -0.00054166984046 -0.0010834054556
          -0.0078320913017 -0.022247597575 -0.02426411584 -0.025806345046 -0.02805967629 -0.0074224881828
          -0.010505598038 -0.025585021824 -0.027659673244 -0.03115975298 -0.029355052859 -0.029269650578
          -0.025976818055 -0.017425296828 -0.0061112181284 -0.008936194703 -0.0031637477223 -0.00014142488362
          -0.017406761646 -0.023027077317 -0.015581819229 -0.0099119562656 -0.0035825564992 -0.0082976296544
          -0.010289846919 -0.019457023591 -0.01666161418 -0.0064471075311 -0.013251397759 -0.00036193741835
          -0.0066690160893 0.014796641655 0.022057043388 0.023994665593 0.022547967732 0.015394402668
          0.0092619601637 0.013289611787 0.02127751708 0.02747666277 0.032345809042 0.037622511387
          0.075728654861 0.011106510647 0.0044056428596 0.0028510773554 0.0023198348936 0.00026636756957
          -0.00084849912673 0.00090742914472 0.011512473226 0.010359500535 0.0047732740641 0.0038023979869
          0.0025067555252 0.0032260878943 0.0011413560715 0.00035788366222 0.00076760957018 0.0017603264423
          -0.011987177655 -0.00021126623324 -0.0016631677281 -0.0019006199436 0.00051672552945 0.00038152138586
          0.00049037236022 0.0013985435944 0.085578814149 0.07143843919 0.039849378169 0.032397203147
          0.025434887037 0.017302872613 0.012875068933 0.018056077883 0.019362464547 0.027820520103
          0.01816441305 0.011736587621 0.00054986221949 0.00061526155332 -0.0001178437451 0.0038484744728
          7.029655535e-05 0.00055800774135 0.00043065156206 0.00036985846236 0.00050527660642 0.00044486360275
          -0.00026880329824 0.0033486541361 0.0028176477645 0.014933533967 0.010917446576 0.012831864879
          0.014821367338 0.015110914595 0.013468789868 0.013036581688 0.014880149625 0.01018427778
          0.013145461679 0.0011518310057 0.0059096859768 0.0083563374355 0.00047096642083 0.0044993232004
          0.0051830746233 0.0013936719624 0.00083572347648 0.00054828089196 0.0056507098489 0.0020844389219
          0.0053947474808 0.011311626062 0.0036721157376 0.002840207424 0.016587417573 0.0033221596386
          0.014264152385 0.00055803678697 0.0053971055895 -0.015224263072 0.0052550490946 0.013630945235
          0.020791787654 -0.020318552852 -0.022008452564 -0.020304877311 -0.020248953253 -0.01707004942
          -0.017160667107 0.0020483771805 0.012209801935 0.0097072124481 0.011614183895 0.0042406753637
          -0.00074019661406 0.015388098545 0.012807071209 0.0011475936044 -0.010084395297 -0.002489220351
          -0.0010084124515 0.0049638110213 -0.0001325764897 -0.0074836164713 -5.3860647313e-05 -0.0080874385312
          -0.0044657709077 0.0033513961826 0.0064814649522 0.0046570356935 -0.016366899014 0.013782714494
          0.011821206659 0.011189679615 0.011851413175 0.0052884290926 0.0041907369159 0.0040297778323
          0.010275801644 -0.017773615196 0.0040803644806 0.0084281070158 -0.021677117795 -0.015898507088
          -0.022691184655 -0.018876207992 0.0016842371551 0.0021814836655 0.0041453111917 0.007405383978
          -0.023036642 -0.0056778392754 -0.0072232084349 0.0014083470451 -0.0064286291599 0.00061370199546
          0.00090824748622 -0.004426217638 -0.0038042063825 -0.044721104205 -0.044874705374 0.022591432557
          -0.024069964886 0.04316631332 0.039941571653 0.029186286032 -0.0095468023792 0.052580017596
          -0.044207785279 -0.034954249859 0.0088103720918 -0.017577843741 0.0037775107194 0.017456294969
          0.023858336732 0.033409573138 0.011434319429 0.0039921663702 0.0032100745011 0.003315393813
          0.0032624839805 0.0032660458237 0.0026993229985 0.0015011457726 0.0016584136756 0.00094090891071
          0.00064796314109 0.00019479631737 0.00031620456139 0.0017892789328 0.0038124271668 0.028487063944
          0.026332195848 0.025023212656 0.024203535169 0.022730547935 0.021305236965 0.022280409932
          0.018122745678 0.01684303768 0.014919262379 0.014453447424 0.012414211407 0.014011668041
          0.011633439921 0.012844171375 0.014336554334 0.012751083821 0.013346820138 0.01269354485
          0.01215964742 0.013970740139 0.024476971477 0.023286061361 0.023455766961 0.023149017245
          0.024697620422 0.023830460384 0.022130746394 0.021384064108 0.025337707251 0.023966999725
          0.028874900192 0.025745596737 0.031053610146 0.0065425233915 0.020933536813 0.015663910657
          0.0045146676712 0.0045970943756 0.0017305578804 0.0018088761717 0.0008775262977 -0.00052775902441
          0.0004207661259 -0.00054443470435 -0.00051504187286 -0.0010397790466 -0.00025203652331 0.0020823825616
          0.023247696459 0.020962778479 0.02155049704 0.019470447674 0.018251655623 0.020148940384
          0.015978768468 0.012677888386 0.014462347142 0.009520182386 0.0076552038081 0.01134792529
          0.0080570261925 0.0062697855756 0.010247034952 0.006975307595 0.0061402921565 0.011341064237
          0.0083096604794 0.0093143209815 0.012052115984 0.007770172786 0.0073821991682 0.02224162966
          0.022520788014 0.021658642218 0.019296359271 0.021903827786 0.017420144752 0.017182346433
          0.022278876975 0.019337557256 0.027608761564 0.020311256871 0.022851876915 0.0033860355616
          0.01466569677 0.0060886475258 0.0052582779899 0.0036466908641 0.0032099848613 0.0010233640205
          0.0002246840013 -0.00057430425659 -0.0013822147157 -0.00079133588588 -0.0010943925008 -0.0008351727738
          -0.00036615313729 0.021347228438 0.020962132141 0.018998362124 0.018858216703 0.01841702871
          0.017502171919 0.015016864054 0.012253775261 0.0098720211536 0.0079528447241 0.0082218302414
          0.0057069645263 0.0029205400497 0.0051798676141 0.0026608111802 0.0025100323837 0.0044578821398
          0.0043851803057 0.0039410153404 0.0051759500057 0.0072828638367 0.0060184518807 0.0057248403318
          0.020645268261 0.020180320367 0.018175847828 0.01204733178 0.011954768561 0.013608952053
          0.013900524937 0.016773626208 0.016658969223 0.013966531493 0.014473437332 0.016214130446
          0.0030273236334 0.0086846882477 0.012736815959 0.0018458137056 -0.00041282287566 -0.0012352516642
          -0.0011618945282 -0.0019315162208 -0.001251693815 0.00096544722328 0.0021252753213 0.0082259671763
          0.0037186110858 0.0038093151525 0.0013439308386 0.00059788452927 0.0091247912496 0.0085236309096
          0.010741088539 0.0083640441298 0.0048768902197 -0.00095681950916 -0.0002077275276 -0.00029636293766
          0.00045745811076 0.0024692898151 0.0058843209408 0.002348100068 0.0014574463712 -6.8679764809e-05
          -0.001006201026 0.0062354402617 0.0042323237285 0.0056212102063 0.0061455247924 -0.00050013902364
          0.00098434451502 0.0038999619428 0.00064466259209 -0.046117339283 0.07489104569 -0.042326420546
          0.052375745028 0.05969389528 0.053667802364 -0.018995430321 0.017000710592 -0.028761178255
          -0.024144070223 0.010857320391 -0.049892570823 0.049817938358 0.038773756474 0.022769546136
          0.0089314589277 0.033876419067 0.030332040042 0.029300313443 0.029518878087 0.029816772789
          0.029837047681 0.030377548188 0.030179323629 0.031083252281 0.032193403691 0.033732451499
          0.034885890782 0.037980280817 0.043003056198 0.047935094684 0.0085235117003 0.011472563259
          0.011082419194 0.012152871117 0.013611883856 0.013505053706 0.016366807744 0.015351778828
          0.01551659219 0.017000416294 0.017794238403 0.018776739016 0.02083954215 0.022217918187
          0.025017729029 0.026336885989 0.026807215065 0.027402704582 0.028153164312 0.028574822471
          0.030130352825 0.0015543504851 0.0011046078289 0.0014576123795 0.0015576494625 0.0019097015029
          0.0016887811944 0.00071439170279 0.0013447685633 0.00029167108005 0.00022070706473 0.00059763930039
          0.00046839669812 0.0009090093663 0.031614564359 0.031093453988 0.015552185476 0.028074670583
          0.028503533453 0.02652481012 0.028323296458 0.026151299477 0.026409652084 0.029760681093