<?xml version="1.0"?>
<VTKFile type="UnstructuredGrid" version="0.1" byte_order="LittleEndian" header_type="UInt32" compressor="vtkZLibDataCompressor">
  <UnstructuredGrid>
    <Piece NumberOfPoints="8484" NumberOfCells="4527">
      <PointData Scalars="Spannung:Scherdehnung XY">
        <DataArray type="Float32" Name="Spannung:Scherdehnung XY" format="ascii" RangeMin="-0.20158356428" RangeMax="0.19652098417">
          0.015058969148 0.015058969148 0.011758270673 -0.12902805209 -0.054474189878 -0.082156702876
          0.00047542405082 0.077439501882 0.054799672216 0.086493082345 -0.011968007311 -0.011968007311
          -0.0570965074 -0.0570965074 0.020646318793 -0.087329022586 0.0082681719214 0.048654634506
          -0.0092662563547 -0.033709246665 -0.18274484575 -0.052778810263 -0.052778810263 0.041482880712
          0.041482880712 -0.026719527319 0.18989005685 0.040959089994 0.011847781017 -0.065922573209
          -0.015634899959 0.056999102235 0.067174099386 0.067174099386 0.030110089108 0.030110089108
          0.0035533180926 -0.033762387931 -0.033762387931 -0.0024917756673 -0.010165192187 -0.060782048851
          -0.060782048851 -0.016064023599 0.038553290069 0.061535686255 0.06833717972 0.077488273382
          -0.0064691915177 -0.0033561736345 0.0053266352043 -0.066810853779 -0.072613567114 -0.11313728988
          -0.049273997545 0.074453607202 0.074453607202 0.0068666334264 0.0068666334264 -0.0065015531145
          -0.0065015531145 -0.00058763171546 -0.005307294894 -0.013125666417 -0.00478652725 6.1982518673e-07
          8.6665141907e-07 -8.8192055046e-06 -0.0096233226359 0.0051971911453 -0.0029719676822 -0.0033254015725
          0.00034348282497 0.00030034180963 0.0037411267404 -0.0010824305937 -0.001880170661 -0.0040230578743
          -0.0050812368281 0.014756494202 -0.00022993593302 -1.1034305203e-07 -1.8772117301e-06 -0.0017965085572
          0.019769327715 -0.0059115882032 -0.0085424697027 0.0701437518 0.097480215132 0.057893048972
          -0.059955455363 -0.10029537231 -0.07279881835 0.004785456229 -0.0071830139495 0.0018073249375
          0.001678553177 0.0005727604148 0.0073515595868 0.020592004061 -0.020577615127 0.01092532929
          0.0073388624005 0.00065584044205 -0.023833641782 0.019254207611 -0.09882606566 -0.072792045772
          -0.057723969221 -0.049186453223 -0.043148253113 -0.034924220294 -0.02920448035 -0.024075785652
          -0.028037732467 -0.045189917088 -0.028468402103 -0.021995704621 -0.0059363259934 0.014014335349
          0.024155613035 0.02910287492 0.044689640403 0.025275431573 0.017486991361 0.029357880354
          0.035843346268 0.043839454651 0.050565063953 0.056504298002 0.076967917383 0.092332907021
          -0.026383386925 -0.17330387235 -0.0025525467936 0.0053103198297 0.0030126059428 0.0027231315617
          0.0043145287782 0.0051963552833 0.0044531775638 0.0017698358279 -0.0010085082613 0.0027200230397
          -0.0095503758639 -0.020660016686 -0.026757262647 -0.037053503096 -0.040259812027 -0.039603129029
          -0.041386742145 -0.042188823223 -0.044321551919 -0.025571109727 -0.01761007309 -0.024391621351
          -0.032144289464 -0.039769604802 -0.046717882156 -0.054109413177 -0.064157187939 -0.097175084054
          -0.14159601927 0.14067158103 0.093045815825 0.070872984827 0.053713928908 0.046641688794
          0.038645043969 0.031706742942 0.023909967393 0.01778726466 0.026695586741 0.04961906001
          0.044425003231 0.051571287215 0.050509940833 0.037330258638 0.035210214555 0.033289216459
          0.02402228862 0.010700018145 -0.0020698283333 -0.001230321941 -0.0014238707954 -0.0043532205746
          -0.0041336803697 -0.0039548021741 -0.0035595863592 -0.0033253110014 -0.0041575585492 0.00018395466032
          0.15086734295 -0.10191707313 -0.14759652317 0.0099280141294 0.068058028817 0.065460085869
          0.062680348754 0.064996384084 0.0695900172 0.076209172606 -0.025808457285 -0.0060499394313
          0.0053334096447 -0.0037458343431 0.002486998681 -0.0028253288474 0.0054681040347 0.018574507907
          -0.078894235194 -0.068136490881 -0.066185049713 -0.062242463231 -0.065198265016 -0.068378828466
          -0.00065319641726 0.13807810843 0.01073912438 0.033979594707 0.0057082269341 0.0006863399758
          -0.0028919496108 0.0006971800467 -0.021573163569 -0.027284502983 -0.00061679398641 -3.6756311601e-05
          1.9174003683e-05 3.4597824197e-06 -1.877316754e-05 -0.00012816653179 -0.00064774730708 -0.0023380424827
          -0.026828125119 -0.0048175957054 -0.0014638428111 -0.00048642139882 -0.00017013549223 -4.9313424825e-05
          -1.7073156414e-05 1.3511588804e-05 -8.0359233834e-05 -0.00081743753981 -0.0013891973067 -0.00096744595794
          -0.0011413274333 -0.00035944694537 3.2368337997e-05 -0.00085548992502 0.00045125346514 -0.00010360460146
          -0.00023911139579 0.00098482670728 -0.0011111011263 -0.0016544559039 -0.00017841308727 -0.00010203728743
          -2.6592340873e-05 -1.766455398e-06 -3.9445535549e-06 -2.239116111e-05 -4.9037342251e-05 -0.00035720373853
          -0.0025555884931 -1.3629722162e-05 -4.2505336751e-05 -6.3014456828e-05 -9.7357107734e-05 -0.00074194604531
          -0.012449285015 0.011498105712 -0.00035716991988 -0.00022558146156 0.00018919914146 4.6554410801e-05
          -4.5190840865e-06 -1.9731618522e-05 -0.0001674417872 -0.00093868939439 -0.0012523906771 -0.00031074881554
          -6.4955107518e-05 -1.3862556443e-05 -7.4353760283e-05 -0.0001288112253 -0.0035258228891 -0.0012938261498
          -1.5089176486e-05 -1.412929123e-05 -2.0379440684e-05 -0.0016887448728 -0.001787008252 -6.6477441578e-06
          0.0017440227093 -0.0010060833301 -3.7955160224e-05 -2.1679293241e-06 2.5521685529e-06 5.2691216297e-06
          1.9452714696e-05 -0.00013460026821 -0.00023141007114 0.0012362222187 0.00090792094124 -0.001152124838
          0.00088072440121 -0.0031708094757 0.07560428977 0.07141174376 0.069590426981 0.071729160845
          0.071340620518 0.10325651616 -0.10193152726 -0.073384970427 -0.071233645082 -0.071807950735
          -0.073031492531 -0.078515484929 0.009619272314 -0.006684595719 -0.0084096249193 -0.0055567482486
          -0.0072185937315 -0.0047120042145 0.014122427441 3.0664912629e-05 -0.0052097467706 0.0065294867381
          0.0074982475489 0.0064507299103 0.0088361473754 0.007635507267 0.010492086411 -0.061513792723
          -0.073208719492 -0.059025593102 0.0051183435135 -0.0052727279253 -0.013359071687 0.036827232689
          -0.0095302499831 0.0087911281735 4.9409100029e-05 0.00011728207755 0.00041179370601 0.0013922698563
          -0.031053954735 0.0027383447159 0.089264109731 0.13115639985 -0.12017542869 -0.088084235787
          0.071342177689 0.059853881598 0.05994617939 -0.027322037145 -0.053320512176 0.12781338394
          0.0042113224044 0.029952969402 -0.0044900141656 0.0029478278011 0.0005360157229 0.00011266429647
          8.5025558292e-06 -9.1543752205e-06 -7.3673010093e-07 -6.6129491643e-06 0.00067029555794 0.026069210842
          -0.009407741949 0.020393444225 -0.00024087823112 -0.00019110820722 0.0011254672427 0.0011787976837
          6.1182523496e-05 2.4706841941e-05 0.0015979672316 9.2058508017e-06 -9.7361598819e-06 1.5474055544e-05
          -7.6539130589e-08 3.5363711959e-06 2.8847864542e-06 7.4943578511e-05 0.0003948052472 0.0029457502533
          0.0011191349477 -8.3164835814e-05 -9.0781184554e-05 0.0012948912336 -0.00089194515022 -3.167226896e-05
          -3.2576092053e-05 -1.4398314306e-05 -0.00010602232214 0.00056764174951 1.5101979443e-05 0.0012397220125
          9.3699927675e-05 3.3521617297e-05 5.6795994396e-07 0.028824158013 0.0037158706691 -0.0074100629427
          0.043139256537 0.041810266674 0.052643645555 0.04591492936 0.042868416756 0.043218303472
          0.044206719846 0.014614169486 0.031271308661 -0.019722621888 -0.0020291989204 -0.035197321326
          -0.051657970995 -0.049016878009 -0.049390278757 -0.042129952461 -0.045042861253 -0.047920186073
          -0.028093103319 0.0014115795493 -0.013640676625 -0.024605831131 0.028515392914 -0.032068058848
          0.0074428613298 -0.0041630738415 0.020553229377 0.017659695819 0.014458961785 0.017518240958
          -0.023384986445 -0.0048249778338 -0.023437090218 -0.013377787545 -0.0096362754703 -0.01657849364
          -0.011796669103 -0.011796127073 -0.0094822654501 -0.0095049133524 0.0061753643677 0.0016545997933
          -0.018785819411 -0.035166718066 0.013088021427 -0.019276916981 -0.034823197871 -0.013141438365
          0.014801880345 0.019075483084 -0.0091174971312 -0.041978474706 -0.057413060218 -0.051232311875
          -0.04471122846 -0.042174272239 0.060643922538 0.038078486919 0.043234642595 0.048461534083
          0.05039992556 0.030536184087 -0.0078179733828 0.026553504169 0.055573713034 0.049330443144
          0.04788011685 0.042604543269 0.039237432182 -0.056823145598 -0.040369011462 -0.043710429221
          -0.04639101401 -0.05278640613 0.011690741405 0.011010338552 0.010039219633 0.0073396377265
          -0.0026514870115 0.0021476862021 -0.004004013259 -0.016031561419 -0.0054641985334 0.00039726661635
          0.0068784425966 -0.06037440151 -0.050593663007 -0.037562455982 -0.028138842434 -0.062241841108
          0.066239722073 0.039092894644 0.041477512568 0.019772516564 0.062078125775 -0.0386268273
          -0.001210506889 0.00015414068184 0.0020338704344 -0.00098949461244 -0.0046186833642 -0.0015147714876
          -0.00099611526821 0.0022654861677 0.004040248692 -0.0050248829648 -0.0056691770442 -0.0090171257034
          -0.016107521951 -0.0031821194571 -0.015621356666 -0.012898172252 -0.011645061895 -0.0072494735941
          0.0054816175252 0.0006324928836 0.052229974419 0.10521567613 0.088693842292 0.063222393394
          0.0026344526559 -0.0022559631616 0.015891894698 0.028528869152 0.036724708974 0.058748047799
          0.032197464257 0.03450075537 -0.063456572592 -0.060509178787 -0.021222885698 0.00017477905203
          -9.5275667263e-05 0.045422088355 0.073144815862 0.076359786093 -0.061637792736 -0.089573904872
          -0.10283324867 -0.025020314381 -0.023849602789 -0.0082931946963 -0.00049625150859 -0.00040654937038
          9.8990312836e-06 8.23737264e-06 -0.0031343018636 -0.001556711155 -0.00015600709594 -0.00012192981376
          -6.3434058575e-06 -4.0573859224e-06 2.7254566248e-06 1.2570835679e-05 0.00012164665532 0.00087560445536
          0.001014381065 0.00024528009817 0.00052649818826 0.0020943272393 0.00058639381314 6.0592356022e-06
          0.0040571913123 0.0045364531688 0.0029792822897 0.0026211712975 0.00071221461985 0.00023224441975
          0.0001007053288 7.8915199992e-06 -0.020687850192 -0.049371689558 -0.03759726882 -0.056473884732
          -0.047859922051 -0.040511578321 -0.033604685217 -0.02566852048 -0.023257067427 -0.025227632374
          -0.023834362626 -0.028959741816 -0.018244512379 -0.008273976855 0.0025053832214 0.0086284363642
          0.0141618466 0.02024182491 0.025202220306 0.029414938763 0.024380780756 0.029513174668
          0.035584826022 0.041680604219 0.04390636459 0.057785347104 0.049450349063 0.031065093353
          0.020739238709 0.0019379148725 -0.0045529883355 0.0068569374271 -0.013988306746 -0.039590809494
          -0.033040083945 -0.027740314603 -0.020925272256 -0.013011839241 -0.01906680502 -0.018601531163
          -0.011035423726 -0.0053734453395 0.0014366903342 0.0087519977242 0.015737816691 0.021018454805
          0.023297389969 0.020384395495 0.027285285294 0.026728924364 0.023437870666 0.039614949375
          0.018239013851 0.001742154127 -0.017420046031 -0.010469252244 -0.0034044536296 0.0037137062754
          -0.0058805341832 -0.013908926398 0.0024053712841 0.010555985384 0.018345175311 0.012926977128
          0.0082597192377 -0.077973105013 -0.057094629854 -0.044161088765 -0.0084662502632 -0.0053403335623
          -0.0039411555044 -0.0042766430415 -0.0065815607086 -0.0049956631847 -0.00058328307932 -0.0030232334975
          -0.015039442107 -0.023907281458 -0.028036102653 -0.02708057873 -0.040426634252 -0.039950419217
          -0.044967759401 -0.03846854344 -0.038054823875 -0.029834618792 -0.024908933789 -0.030934279785
          -0.037897698581 -0.045202501118 -0.054078381509 -0.066871017218 -0.079401671886 -0.09101741761
          -0.086688421667 -0.079272039235 -0.076168440282 -0.070952817798 -0.046048488468 -0.024739520624
          -0.022350531071 -0.020266324282 -0.019746784121 -0.021756757051 -0.01312714722 -0.0080762635916
          -0.017760483548 -0.017016282305 -0.023246115074 -0.029489217326 -0.026780899614 -0.027881430462
          -0.025794995949 -0.029730834067 -0.036016717553 -0.041410218924 -0.047536335886 -0.055077001452
          -0.064009159803 -0.06221748516 -0.040447771549 -0.035612333566 -0.033110830933 -0.032230250537
          -0.022742327303 -0.025644149631 -0.031080495566 -0.032413676381 -0.037296082824 -0.040379457176
          -0.044669989496 -0.050963759422 0.09451636672 0.093208380044 0.07999637723 0.065905630589
          0.05246386677 0.043937593699 0.036868449301 0.032081056386 0.025977682322 0.024011790752
          0.02935786359 0.042988684028 0.030915670097 0.031456746161 0.023436931893 0.023129990324
          0.025662539527 0.018931291997 0.0099175116047 0.0027329050936 0.00082842027768 0.0021977627184
          0.0028418481816 0.0034268158488 0.004807389807 0.0076273363084 0.014115106314 0.039437945932
          0.05559791252 0.069056876004 0.079272925854 0.07408490777 0.065048478544 0.061213444918
          0.063517645001 0.054335847497 0.045910928398 0.040035467595 0.036097239703 0.029933484271
          0.029001383111 0.026129787788 0.027199933305 0.025538727641 0.021029155701 0.02105701901
          0.015321738087 0.0066851610318 0.010638209991 0.015211179852 0.017978873104 0.020828012377
          0.025918463245 0.033641349524 0.050639551133 0.044799666852 0.049247570336 0.04165667668
          0.036974385381 0.033373799175 0.031604483724 0.028221800923 0.024575997144 0.019261423498
          0.027320910245 0.031785506755 0.036838140339 -0.015108206309 -0.014705860987 -0.0049148555845
          0.0055190199055 0.010482878424 0.00076784275007 -0.011545986868 0.00055690540466 -0.0030367542058
          -0.0047857402824 -0.0020106695592 -0.0029990079347 -0.0018010061467 -0.0019240783295 3.8419384509e-05
          0.013942978345 0.015751766041 0.052927091718 0.070189282298 0.057797107846 0.057208213955
          0.048080164939 0.034221496433 0.027834707871 0.080321066082 0.082737050951 0.083261467516
          0.085850588977 0.085337862372 0.029431594536 0.032611619681 0.084005840123 0.0016553539317
          -0.074261747301 -0.025750219822 -0.022404564545 -0.090178959072 -0.085750393569 -0.084396123886
          -0.083659805357 -0.081452451646 -0.050293851644 -0.069549992681 -0.059909686446 -0.042728338391
          -0.053150884807 -0.034209448844 -0.043057072908 -0.017390010878 -0.0094549907371 -0.024993073195
          -0.029501514509 -0.023594990373 -0.035442337394 -0.038425892591 -0.041410759091 -0.049078553915
          -0.052280724049 -0.036140780896 -0.028339767829 -0.062001142651 0.040081642568 0.038262791932
          -0.012722230516 -0.031840212643 0.021893059835 0.061057794839 0.05386793986 0.044298212975
          0.0409809798 0.044192712754 0.026831228286 0.026821622625 0.029679639265 0.070212185383
          0.067927464843 0.055293254554 0.048800449818 0.077303960919 0.081898391247 0.081559844315
          0.084792159498 0.078142628074 0.056576989591 0.071610763669 -0.067190684378 -0.037926606834
          -0.084601543844 -0.08274063468 -0.081870503724 -0.079367548227 -0.07783382386 -0.071070879698
          -0.058652378619 -0.068253040314 -0.026896279305 -0.049674920738 -0.042551480234 -0.055273957551
          -0.064533084631 -0.068846680224 -0.063370987773 -0.072020553052 0.063200123608 0.044143233448
          0.065919362009 0.043425828218 0.076984792948 0.066177681088 0.0578895621 0.071310311556
          -0.075801931322 -0.068701580167 -0.065693132579 0.14423909783 0.066977679729 0.034097410738
          0.043347373605 0.033518750221 0.0394080244 -0.0086556738243 -0.0045925569721 -0.0022851750255
          0.00050129898591 0.13147094846 0.16269098222 0.095854990184 0.13908359408 0.057943090796
          0.00055069249356 0.00025203515543 -0.0014401372755 -0.0032249789219 -0.0012925016927 -0.0014342212817
          0.00028185988776 -0.0016970087308 0.0093220258132 0.098104760051 0.10541496426 0.09376783669
          0.079792767763 0.067886471748 0.077707022429 0.0011106205638 0.00068902829662 0.0015353964409
          -0.010200592689 -0.11888317764 -0.10196010768 -0.09116166085 -0.080049939454 -0.072563871741
          -0.086292386055 -0.11835268885 -0.086844943464 -0.042373303324 -0.09063500911 -0.01794501394
          -0.02704099752 0.036324400455 -0.13630595803 -0.1673925817 -0.10689730197 -0.091351009905
          -0.046801172197 -0.0016703411238 -0.0069791427813 0.0069449897856 -0.002141824225 -0.00025669613387
          -0.0017713119742 -0.00043332733912 -0.00012770178728 -6.8351742812e-05 -0.00019778050773 0.014178761281
          0.01147649996 -0.0099951634184 0.0073694535531 -0.006991061382 0.0070215910673 -0.0050890957937
          -0.0015224051895 0.0007400343311 0.0025373157114 0.0070822481066 0.0068147489801 0.0047978288494
          -0.00024773000041 2.7574098567e-05 0.0030961111188 0.0010523480596 0.0047437204048 -0.003129012417
          -0.0059221987613 -0.0038761263713 -0.0034555923194 0.0051496298984 -0.0071608754806 -0.002210492501
          0.0067365607247 -0.0023279516026 -0.0031117468607 0.0018164197681 -0.0043135117739 0.0053019477054
          0.0092622423545 0.00027028622571 0.0019551152363 -0.013618137687 0.0040218364447 -0.0016265345039
          -0.00061562674819 -0.00053660344565 -0.0013660675613 7.7541390056e-06 0.0016169070732 -0.00087801093468
          -0.0034817012493 -0.00021458456467 0.0012178838952 -1.1538103914e-13 1.7692562151e-16 0.00068974745227
          0.0029706375208 0.0014736580197 0.00079105026089 1.4056925112e-14 8.8434326244e-06 -0.0002320803178
          -0.00206587906 -0.0033350188751 -0.0023386913817 0.0003064663324 0.0023485855199 7.2276641731e-05
          0.002704140963 -0.00091119681019 -0.00042909645708 -0.00061784102581 -0.0012298609363 -0.00084411050193
          -0.00033687523683 0.001154037891 0.00016517027689 2.1024799935e-05 2.8759181987e-06 6.3411503106e-06
          1.3319985555e-05 4.4298699322e-06 0.00013308951748 0.00092710560421 0.0015493095852 0.00068861088948
          0.0042520333081 0.0017194921384 0.0019262916176 0.0037912135012 3.6987241856e-06 3.851589554e-07
          -2.3941815016e-05 -0.00038925060653 -0.00099484249949 -0.00058491737582 -0.001293713809 0.00048026314471
          -0.00056883576326 -0.0042129983194 -0.0040594618767 0.00092551915441 0.0017171951476 -0.0004429948749
          0.00020171880897 -1.2838603652e-05 -0.0010994824115 -0.0013711614301 -0.0011281808838 -0.00013778674474
          -2.4220502382e-05 -2.2025776047e-07 -5.3413764363e-06 -1.123103857e-06 -0.00011477393127 1.7859249056e-05
          -0.0054273041897 0.00051772262668 0.0012811709894 -0.0023008259013 0.0049214093015 0.0035864452366
          0.0028059498873 0.0042273267172 -0.002926466288 0.00010566893616 2.0967334422e-05 0.0020171073265
          0.0012230206048 0.00021551563987 2.7166470318e-05 -1.5981062461e-05 -3.5923359974e-05 -9.3705370091e-05
          -4.2529900384e-05 0.00060680956813 6.5467211243e-05 0.00030542415334 0.0015034689568 0.0017143579898
          0.0017552898498 0.00196912908 0.002151372144 0.00048894260544 0.00027401419356 0.0002177983697
          9.7337448096e-05 2.7189302273e-05 2.6344674552e-05 7.6688767876e-05 0.00033067137701 0.0013049190165
          0.0054632974789 0.011259273626 0.0080800652504 0.0091794840991 -0.0077353883535 -0.00080093747238
          0.015465458855 -0.019591150805 -0.012470984831 0.00010209789616 -0.0024822361302 -1.4118164472e-05
          -2.3923534172e-05 -0.00048927363241 0.0014867004938 0.00022090761922 9.2599846539e-05 1.359034195e-05
          -7.6656233432e-06 0.01660101302 0.015997532755 0.034402925521 0.048841059208 0.017686333507
          0.020856894553 0.027419144288 0.0006805343437 0.0032511355821 1.7919424863e-05 7.8699973528e-05
          0.00082741992082 -0.00043971018749 0.0021311896853 0.0011867714347 0.00080768071348 0.0019306073664
          0.0013260570122 -0.00017910788301 0.00036502696457 0.0012381217675 0.0023171352223 0.0062980358489
          0.0098763471469 0.0028646683786 0.006783883553 0.0024107361678 0.0033352673054 0.0080316169187
          0.0012154357973 0.0012941368623 0.0086233718321 -0.028701104224 0.018386252224 0.094946607947
          -0.083151005208 0.0071660438552 -0.011231483892 -0.030164537951 -0.0016481726198 -0.0039835390635
          -0.0036982444581 -0.044112447649 -0.065788447857 0.083164095879 -0.024772308767 -0.0023798514158
          0.0030815196224 -0.030817423016 -0.00030325585976 -0.085989877582 -0.041922718287 0.00084616430104
          -0.00084211875219 0.00077678228263 0.0011800202774 -0.0051462887786 0.016790052876 -0.030756250024
          -0.011718023568 -0.0095371603966 0.034896891564 -0.033366393298 -0.00052908499492 0.0049368692562
          0.022662645206 -0.00029927390278 0.033079706132 -0.032997962087 -0.013802741654 0.0056267650798
          0.016353806481 0.0025069806725 -0.0053293732926 -0.019448027015 6.6817985498e-05 0.0023949302267
          0.032051760703 0.0059408503585 0.0011590828653 -0.0027842062991 -0.0021851833444 -0.00047810617252
          -0.039933666587 -0.037003323436 -0.03324759379 0.034837454557 0.035602010787 0.035507295281
          0.0361591205 0.0018550528912 -0.024050869048 -0.018252789974 -0.01036797557 0.025708945468
          0.02116834186 0.0079922853038 -0.0044905687682 -0.031424988061 -0.048279661685 -0.031896330416
          -0.022862687707 -0.022876862437 -0.042325194925 -0.053214546293 -0.058830548078 -0.066130161285
          -0.066973440349 -0.039491016418 -0.024490583688 -0.023855412379 -0.034278962761 -0.048321679235
          -0.053219608963 -0.036438282579 -0.051335755736 -0.055362183601 -0.056222680956 -0.03050856851
          -0.042964298278 -0.058680023998 -0.049693480134 0.011539968662 0.030481420457 0.063445620239
          0.069717526436 0.059054944664 0.054061237723 0.039378862828 0.019054271281 0.021373869851
          0.02297427319 0.025769814849 0.038243867457 0.050181888044 0.046367451549 0.063677445054
          0.054052155465 0.045915301889 0.028696494177 0.012438226491 0.033810395747 0.03873648867
          0.043619710952 0.056572839618 0.053583294153 0.046442456543 0.041330132633 -0.0025422314648
          -0.0023285755888 -0.014709470794 -0.019837006927 -0.008234991692 -0.02153327316 0.028209848329
          0.02025696449 -0.013106524944 -0.026476666331 0.034218512475 -0.0037409535144 -0.017707910389
          -0.044290274382 0.031593542546 0.049474202096 -0.04956671223 -0.046591363847 0.0012399073457
          0.0098488796502 0.02949090302 0.025765927508 0.047215815634 -0.046813044697 -0.024844042957
          -0.026002774015 -0.0021668162663 0.0067407805473 -0.043315865099 0.0019645341672 0.0061254361644
          0.002930116374 0.015948586166 0.013075695373 -0.010751135647 -0.041183438152 -0.04681109637
          0.043760515749 0.025976242498 0.028030276299 -0.015683339909 -0.038695171475 0.023179400712
          0.029901055619 0.026629766449 0.0033350391313 -0.0021020525601 -0.0024611160625 0.0019261741545
          0.0050118463114 0.0056746313348 0.0062191272154 -0.0001348045771 0.0031918950845 -0.024192187935
          -0.034584071487 0.026286754757 -0.036786813289 -0.0019437288865 -0.070660851896 -0.016496645287
          0.044480103999 0.0394814834 -0.0035594131332 0.0030529303476 -0.0036507069599 0.044280018657
          -0.00081599876285 0.011075114831 0.0081315310672 -0.021357279271 0.017515424639 0.0025409937371
          0.0041632256471 0.0016488092951 -0.0087019866332 0.020296847448 0.0032182219438 0.061839140952
          0.049588054419 0.039648085833 -0.005196663551 -0.015086068772 -0.0005258564488 -0.0017693541013
          -0.004783461336 -0.0096305087209 -0.00077122088987 0.037670623511 -0.024093525484 0.014479374513
          0.0019252317725 -0.038167826831 -0.039155900478 -0.032421305776 0.033467393368 -0.039834327996
          0.029485186562 0.033234208822 -0.031156789511 -0.020740412176 0.0051061380655 -0.0012998456368
          0.008222729899 0.014377498068 0.023775806651 -0.021873774007 0.044755011797 -0.02712203376
          0.020794706419 0.038728691638 0.0056173517369 0.010561481118 0.036745771766 0.0016170120798
          -0.036552995443 -0.012050423771 0.026111010462 -0.035693779588 0.019721604884 0.15520764887
          -0.13845686615 -0.019939970225 0.0049962312914 0.011744496413 -0.10494892299 -0.0040563815273
          -0.007973135449 -0.007973135449 0.052664574236 -0.077797800303 -0.10937385261 -0.082623489201
          -0.062346827239 -0.053351733834 -0.046766724437 -0.039498202503 -0.033095743507 -0.025528550148
          -0.020724488422 -0.040455065668 -0.084299661219 -0.10576492548 -0.034282941371 -0.024456612766
          -0.012907728553 -0.0046157152392 0.0072231674567 0.019596658647 0.023084146902 0.033923830837
          0.105423145 0.079179555178 0.035823497921 0.019563380629 0.022281205282 0.033151119947
          0.039509098977 0.046683833003 0.053979106247 0.061526343226 0.084213592112 0.098146393895
          -0.0857989043 0.0425147973 0.003530686954 0.003530686954 -0.19902193546 -0.1350723654
          -0.018270565197 0.0016663314309 0.0020165294409 0.0024926951155 0.0037621201482 0.0048846071586
          0.0053706676699 0.0026368605904 -4.289485878e-05 0.0015775959473 0.027528958395 0.029228687286
          0.00049207499251 -0.01447809767 -0.024064131081 -0.039183150977 -0.038235515356 -0.03786477074
          -0.040702015162 -0.040404658765 -0.038189325482 -0.068140313029 -0.020958222449 -0.032639231533
          -0.018722444773 -0.019667595625 -0.028010617942 -0.035866044462 -0.043640624732 -0.050061956048
          -0.059244859964 -0.076468333602 -0.12661345303 -0.10592316836 -0.17439429462 0.0028296431992
          0.0028296431992 0.15788701177 0.16322985291 0.12288428098 0.077174849808 0.059238255024
          0.050409719348 0.042362287641 0.035290971398 0.028370156884 0.02022164315 0.019732449204
          0.033000070602 0.032639689744 0.069028452039 0.046750582755 0.052729014307 0.052805528045
          0.049336329103 0.033344343305 0.037305805832 0.030927877873 0.018856830895 0.0048039010726
          -0.039960626513 -0.053708516061 -0.0014154613018 -0.00043865904445 -0.0031965237577 -0.0043645375408
          -0.0045549119823 -0.0035045116674 -0.0031322119758 -0.0027890000492 -0.0011055709329 0.018241548911
          0.16778331995 0.11186333001 0.012042776681 0.012042776681 -0.083394393325 -0.074421450496
          0.0076870783232 -0.035764504224 -0.035764504224 0.023587241769 -0.13419763744 -0.0085846967995
          0.053676739335 0.033072657883 0.071931228042 0.067162998021 0.063903450966 0.06342124939
          0.065715260804 0.073862031102 0.098607644439 0.041718944907 -0.034402433783 -0.025403346866
          -0.0045736888424 -0.0057075773366 -0.0017598434351 0.0025986153632 0.0034497657325 0.0058202883229
          0.025228265673 0.021765695885 -0.079584479332 -0.028789812699 -0.07395555824 -0.065386846662
          -0.064500115812 -0.062953345478 -0.066512472928 -0.072362676263 -0.094070091844 -0.069134965539
          0.0093105398118 0.12239354104 -0.063759803772 0.011404714547 0.0081746783108 0.078942134976
          -0.0012124761706 0.0026184639428 -0.0013125896221 0.0022853726987 -0.0088923098519 -0.012000760995
          -0.045094575733 -1.4856788084e-06 -0.016666278243 -0.039395339787 -0.0032220652793 -0.00040846172487
          -3.9873273636e-05 9.7018130418e-07 -8.4702778622e-06 -5.7318691688e-05 -0.00033204327337 -0.0013090997236
          -0.0056028333493 -0.022008698434 -0.035579368472 -0.0072428598069 -0.0031451047398 -0.002029247582
          -0.00078567164019 -0.00031081057386 -7.2254530096e-05 -1.7192094674e-05 1.0706771718e-06 -4.2235865294e-06
          -2.3146793637e-07 -6.7159612627e-07 -2.2586514206e-06 -1.0094349818e-05 9.4008337328e-06 -0.00058469438227
          -0.00037160833017 0.0007290749345 -0.00097565038595 -2.7522482924e-05 0.0001931602892 -0.0004032740253
          0.00058224360691 -0.00035634802771 2.6264697226e-05 5.7811867009e-06 5.6999278968e-06 -4.5067150722e-07
          -1.3091411688e-07 -1.2129640709e-05 9.0779543882e-09 -2.3035959202e-06 -1.7065611246e-05 -0.00017723703058
          -0.0014794466551 1.1570014976e-05 4.4695367251e-05 -2.2299278498e-05 -4.9382193538e-05 -8.5581406893e-05
          -0.00024949453655 -0.015537111089 -0.0098886741325 0.0062635522336 0.013599756174 -0.00071121210931
          0.00011249785166 -0.00013449395192 0.00019160035299 -0.0087517276406 -0.0041996701621 -0.0002724386286
          0.00013270402269 4.6774563089e-05 -5.2307123042e-06 -5.5514752603e-05 -0.00042563219904 -0.0018974620616
          -0.0037966032978 -0.012844680808 0.0068793869577 -0.0013425265206 -0.00066202308517 -0.00017196346016
          -2.9966544389e-05 -2.2989474928e-06 -2.0105559884e-07 -1.4128954717e-06 -7.2787752288e-06 -4.337732662e-06
          1.0204019418e-05 -3.7483747292e-05 -1.157472434e-05 -2.8096901588e-05 -2.3667253117e-05 -0.0030955176335
          -3.0007422538e-05 -1.4798027223e-05 -0.0008814422763 -5.780056199e-06 -0.00064819905674 -6.1595441366e-05
          -6.0843062784e-06 1.4599864073e-07 9.8326779607e-07 3.7294918002e-05 1.1266050933e-05 -4.4258426897e-06
          0.0029678288847 -2.1179887426e-06 0.00055340660037 0.00025956198806 0.040242820978 0.040242820978