<?xml version="1.0"?>
<VTKFile type="UnstructuredGrid" version="0.1" byte_order="LittleEndian" header_type="UInt32" compressor="vtkZLibDataCompressor">
  <UnstructuredGrid>
    <Piece NumberOfPoints="5137" NumberOfCells="2623">
      <PointData Scalars="Spannung:Lotrechte Dehnung YY">
        <DataArray type="Float32" Name="Spannung:Lotrechte Dehnung YY" format="ascii" RangeMin="-0.11070534587" RangeMax="0.22167827189">
          -0.057547129691 -0.057547129691 -0.038799736649 -0.01881336607 -0.01881336607 -0.029989769682
          -0.034014742821 -0.034014742821 -0.048409149051 -0.07391372323 -0.07391372323 -0.044227194041
          -0.020669536665 -0.020669536665 -0.026386367157 -0.040678400546 -0.040678400546 -0.035327777267
          -0.0030525305774 -0.0063968608156 -0.0026426617987 0.011838911101 0.031404949725 0.0046625537798
          0.013712852262 0.026231784374 0.010113202035 -0.018192792311 -0.01542482432 0.0036791607272
          0.0014668763615 -0.011662933044 0.00097222259501 0.0043485825881 -0.0027600151952 0.037977695465
          0.0087803155184 0.0044908765703 -0.033420030028 -0.035458695143 -0.032480631024 0.0014257169096
          0.03107463941 0.018023164943 0.024981586263 0.020005468279 -0.036768127233 0.027606338263
          0.022086679935 0.07673727721 0.078916743398 0.069502182305 0.032840378582 0.10841165483
          0.060840312392 0.047109723091 0.097067832947 0.012834343128 0.036155212671 0.036956924945
          0.024817176163 0.031864497811 0.0019380588783 0.032219193876 0.027798678726 0.015688756481
          -0.0085373753682 0.008868037723 0.054052177817 0.033422376961 0.034609269351 0.03891408816
          -0.011150148697 -0.00083322421415 0.0070385476574 -0.01645921357 -0.016688203439 -0.0068336692639
          -0.00079681730131 -0.0028352302033 -0.013766135089 -0.00040282530244 0.0017955312505 -1.8153001292e-05
          -0.00041662587319 -0.0015268845018 -0.0049743736163 -0.005232702475 -0.005624753423 -0.0089616365731
          0.037419646978 0.031588762999 0.021787341684 0.014983280562 0.0027088720817 -1.6428642994e-05
          0.0025998023339 0.022563127801 0.024080498144 0.029259789735 0.030686352402 0.036581777036
          0.02777964808 0.015828564763 -0.033884748816 -0.021954085678 0.0084980465472 0.0053071677685
          0.0060105309822 0.026007272303 0.027186019346 0.0047497469932 0.01054468751 0.0056013478898
          0.029140975326 0.016284625977 -0.033067595214 -0.033138364553 0.047747351229 0.047316465527
          0.053759593517 0.064595252275 0.065506227314 0.033402889967 -0.0095082139596 -0.0072853974998
          0.001642413321 0.011601068079 0.023013778031 0.028502117842 0.031476188451 0.030738472939
          0.034764993936 0.023251108825 0.015495416708 0.0077599477954 0.00059464457445 0.00069545872975
          0.010823313147 0.024180622771 0.034538354725 -0.0034482041374 -0.00069700006861 -0.0020664893091
          -0.0020698222797 -0.00041645302554 0.00053075241158 0.017283944413 0.020076550543 0.015446309
          0.019513051957 0.017697464675 0.020203143358 0.021333009005 0.019970694557 0.01784911193
          0.017959751189 0.015921417624 0.021739773452 0.017286440358 -0.024342568591 -0.020405292511
          -0.014235273935 -0.0057370350696 -0.0031009837985 0.016499986872 0.014700124972 0.017473654822
          0.016109051183 0.018481018022 0.018781032413 0.020293504 0.021047217771 0.023519864306
          0.021751813591 0.018677469343 -0.013535429724 -0.011107450351 -0.0068573220633 -0.0030702960212
          -0.0010347468778 -0.004122172948 -0.0043400125578 -0.0037551959977 0.019365973771 0.013920834288
          0.011752041988 0.0051709660329 0.0036040088162 -0.013953761198 -0.016532301903 -0.016114106402
          -0.014950587414 -0.016173645854 -0.008873257786 -0.0022126690019 0.0033691741992 0.0022445179056
          0.0012698840583 0.00035251135705 6.47008128e-05 -0.00063776480965 -0.0016207776498 -0.0010211841436
          -0.0014793846058 -0.054297979921 -0.037638179958 -0.057186193764 0.029870804399 0.029450591654
          0.031391344965 0.032629661262 0.035127159208 0.037302400917 0.044990833849 0.052048724145
          0.0049211904407 0.0072687841021 0.0083996383473 0.0096178036183 0.010221055709 0.011094663292
          0.011649223045 -0.041926853359 -0.034686464816 -0.045270051807 -0.0017281151377 0.0015239715576
          0.0024540978484 0.0026891243178 0.0039398991503 0.0032821975183 0.0036129103974 0.0036236732267
          0.020466510206 0.022480713204 0.022965056822 0.017885360867 0.01764988713 0.016940264031
          0.015518826433 0.015051818453 0.015420910902 0.013352871872 0.016880247742 0.032244615257
          0.031680952758 0.033349845558 0.035322345793 0.036726076156 0.03999594599 0.047510124743
          -0.023349680007 -0.023214029148 -0.022352060303 0.01630449295 0.015742186457 0.016649927944
          0.017481489107 0.017210600898 0.018059490249 0.02003422007 0.0034668529406 0.0069413878955
          0.002669832902 0.011330219917 0.015838976949 0.020543701947 0.0078788790852 0.0076657859609
          0.0082781948149 0.0095113515854 0.0082073248923 0.0086931698024 0.00943818409 0.014741192572
          0.014142457396 0.016821207479 0.0049537550658 0.0012723662658 0.0054361452349 0.009166537784
          0.010913732462 0.0074478867464 0.020805556327 0.020141538233 0.020782671869 0.016785200685
          0.011972980574 0.0062667489983 0.0085260868073 0.024885144085 0.023268984631 0.021895453334
          -0.0013149611186 -0.0010837527225 -0.0061855395325 -0.01350123249 -0.015927994624 -0.012969473377
          -0.016313174739 -0.011812068522 -0.018322678283 -0.015467857011 -0.019334139302 -0.019824797288
          -0.028613653034 -0.026640465483 -0.012267161161 0.0093709519133 0.012816839851 0.017742071301
          -6.0543705331e-05 -0.00033128345967 -0.00086424761685 -0.00069720478496 -0.0017294912832 -0.0028304893058
          -0.0046618636698 -0.0077624679543 -0.020620338619 -0.019811540842 -0.01720989868 -0.021293798462
          -0.021914772689 0.006515590474 0.001936511253 0.0034533122089 0.0052384240553 0.0067418473773
          -0.0014970279299 0.078507058322 0.022480621934 0.033733345568 0.026440417394 0.019634254277
          0.012786460109 0.019830837846 0.0053421137854 0.00060109508922 0.00098188919947 -0.0037786122411
          6.6262837208e-05 0.00011325046944 0.00072173442459 0.0020286680665 0.0027449482586 0.020089151338
          0.013686332852 0.021474279463 0.02943180874 0.036877401173 0.047696556896 0.082984231412
          -0.033535521477 0.00015189913393 0.00042864819989 -0.00027924004826 -0.0018953960389 0.0023179075215
          -0.015921354294 -0.017270412296 -0.015480211005 -0.014432962053 -0.021004281938 -0.024373555556
          0.000757525675 0.0018628946273 -0.0048814895563 -0.0073410994373 0.0047785798088 -0.007273143623
          -0.0035673878156 0.0097525035962 0.017426323146 0.0091784689575 -0.0078330524266 0.0045687723905
          0.012000702322 0.014474380761 -0.0018283252139 -0.0041159377433 0.005740431603 0.03915271163
          0.0095215057954 0.057412926108 0.044977959245 0.033842943609 0.028022360057 0.03041745536
          0.031484324485 0.033382933587 0.034340832382 0.037572957575 0.041746772826 0.04686557129
          0.010022928007 0.015267880633 0.01777533628 0.02072324045 0.020515082404 0.022861070931
          0.023409359157 0.026384392753 0.027140429243 0.0314739272 0.02911856398 0.032939478755
          0.030545342714 0.030825458467 0.030507421121 0.029428686947 0.011900379322 0.012622598559
          0.015322140418 0.016940973699 0.015596416779 0.016451276839 0.018953781575 0.028814421967
          0.038278114051 0.030921949074 0.031967643648 0.031248074025 0.029942352325 0.034664086998
          0.037631057203 0.035333510488 0.016597991809 0.019589656964 0.022544587031 0.025285720825
          0.027250329033 0.029735494405 0.020983211696 0.021560611203 0.027593396604 0.02524767071
          0.028435863554 0.015460363589 0.0031341849826 0.020311977714 0.033051393926 0.05098388344
          0.0055403844453 0.0066909613088 0.0065238196403 0.006321514491 0.0075716925785 0.0065964204259
          0.0080968216062 0.015412861481 0.029934374616 0.029677633196 0.02977526933 0.028908612207
          0.028513440862 0.027630703524 0.024381633848 0.023121997714 0.019863588735 0.019876053557
          0.016155863181 0.017949203029 0.013306199573 0.015576754697 0.011890373193 0.010752110742
          0.030925283208 0.032001115382 0.031322378665 0.029794037342 0.036877628416 0.031923368573
          0.039875544608 0.042102847248 0.029805086553 0.010379156098 0.0090490039438 0.0097359577194
          0.012536012568 0.011294840835 0.014848666266 0.022286983207 0.029612850398 0.025549298152
          0.022017590702 0.017742905766 0.015597881749 0.012159854174 0.024596268311 0.029778573662
          0.030997043476 0.017504518852 0.019950272515 0.020158726722 0.010143647902 0.012491591275
          0.0037789519411 0.0054658586159 0.0047965608537 0.016000220552 0.01464281138 0.015122659504
          0.012223714031 0.0096695311368 0.010084763169 0.0099076665938 0.0093324808404 0.011749889702
          0.01325482782 0.016856143251 0.0061443517916 0.0039183092304 0.0058530066162 0.010264753364
          0.012535682879 0.014994597062 0.010237881914 0.010586703196 0.0084164943546 0.0083136046305
          0.0038175124209 0.0025352949742 0.0079991687089 0.008556291461 0.0029113385826 0.0035115620121
          0.0055806618184 0.0031060734764 0.002802711213 0.0039762137458 0.0031088110991 0.0059165279381
          0.0010140028317 0.00030447298195 0.0077298311517 0.003866730025 0.0032083031256 0.00033437565435
          0.0045187743381 -0.00083290797193 0.00035296616261 0.0034426667262 -0.0010777782882 -0.0025401574094
          -0.0017298938474 -0.0012642163783 -0.0016469346592 0.0012793379137 -0.00075420038775 -0.0030731167644
          -0.0039640027098 -0.0017808171688 -0.0034556984901 -0.0038872230798 -0.010624243878 -0.0050900089554
          -0.012964207679 0.0030986065976 0.0052710114978 0.0014034981141 0.0069441399537 -0.014442231506
          -0.014362701215 -0.01326528471 -0.0085256863385 0.022702887654 0.0098943961784 0.0080415736884
          -0.0039644651115 -0.002343182452 -0.0038769042585 -0.011456571519 0.00099107786082 -0.0078428173438
          0.001209049602 -0.00035470546572 0.012178048491 0.0022217179649 0.0019342970336 -0.00049061042955
          -0.0010182379046 4.8344423703e-05 1.1199431356e-05 -0.00079018075485 -0.0040693632327 0.00053498824127
          0.0008802836528 0.0067082853056 0.010406665504 0.014290748164 0.035766527057 0.0036450996995
          0.0068028829992 0.0095681492239 0.010875403881 0.010676546022 0.058827038854 0.037269484252
          0.024901300669 0.01661106199 0.014819441363 0.0094923367724 0.023639298975 0.013367014006
          0.021549355239 0.0011122606229 0.0063263769262 -0.00087844504742 -0.00066665059421 -0.00028084914084
          -0.00065748859197 -0.00089218653738 -0.010902519338 -0.0017984851729 -0.0098631661385 0.0085130687803
          0.017354032025 0.0068859243765 0.029238875955 0.036541547626 0.042818650603 0.0026199230924
          -0.00077876413707 -0.0031696890946 -0.0050114104524 0.039658088237 0.0088314525783 0.0032580676489
          0.00069336337037 0.019841101021 0.0077051506378 0.021876297891 0.0028135201428 0.010014836676
          -0.018773538992 -0.025236155838 -0.0085240406916 -0.0015392967034 -0.0019523171941 -0.0013489940902
          -0.0032128731254 -0.012967059389 -0.0051187328063 -0.021463336423 -0.0057020750828 -0.023764446378
          -0.012896644883 0.0099172480404 0.0082055907696 0.0062877093442 0.0079093538225 0.011689030565
          0.012748584151 0.015234777704 0.019296322018 0.005729906261 0.0068946676329 0.0057326275855
          0.0060820207 0.023445021361 0.02378812246 0.026542782784 0.02879267931 0.00083592365263
          0.031863555312 0.028442252427 0.025432128459 0.024875411764 0.0014549312182 0.001134415972
          0.0022931448184 0.00031718410901 -0.0037828609347 -0.0079282894731 -0.008081631735 -0.0069076218642
          -0.0040351878852 -0.0022020461038 -0.0017578010447 -0.0040935217403 -0.002918018261 -0.0023565955926
          -0.0041018091142 -0.010073790327 0.00027149004745 -0.00074103329098 -0.0018608587561 -0.0069853048772
          -0.0064617865719 -0.0033989783842 -0.0062397443689 -0.0077490140684 -0.0050562135875 -0.02017801255
          -0.017122948542 -0.024777105078 -0.017445277423 -0.014516689815 -0.010109947063 -0.027299437672
          -0.01867031306 -0.0162812341 -0.020566657186 -0.015649732202 -0.021071959287 -0.017382694408
          -0.017844803631 -0.02184098959 -0.021600278094 -0.018592663109 -0.019112208858 -0.021282048896
          -0.018767176196 -0.018205240369 -0.013044933788 -0.016292603686 -0.010337828659 -0.014295295812
          -0.015007776208 -0.016642011702 -0.011455295607 -0.012088109739 -0.0079640075564 -0.0073721590452
          -0.011598326266 -0.0060080792755 -0.0084217740223 -0.0038005497772 -0.0044521884993 -0.0062076631002
          -0.0037446860224 -0.0032279533334 -0.00057296367595 -0.0011292156996 0.00051010760944 -0.0077780685388
          -0.0099977618083 -0.0069950101897 -0.0081589687616 -0.0036189323291 -0.0025872620754 -0.001652540057
          -0.0019976524636 -0.0034857799765 -0.0020797718316 -0.0048499330878 -0.0013013719581 0.081080786884
          0.077755898237 0.064204186201 0.06191335991 0.039959300309 0.034187648445 0.021214537323
          0.020892765373 0.010939108208 0.041382718831 0.039694689214 0.029824487865 0.038149256259
          0.053129326552 0.028456078842 0.027091903612 0.020806837827 0.021061634645 0.011173978448
          0.018899582326 0.032237932086 0.016956111416 0.015200085007 0.013797611929 0.016023490578
          0.014377799816 0.0073294052854 0.0017471552128 0.011152653955 0.0040496713482 0.00095901306486
          0.0077443290502 0.0001847668027 0.011111113243 0.043014548719 0.046269491315 0.044980410486
          0.0056418897584 0.019705791026 0.029246237129 0.021392207593 0.0020460446831 0.011634870432
          0.037745136768 0.03346375376 0.012943110429 0.008101339452 0.0037077625748 0.00058116938453
          0.0025214187335 -0.0048734787852 -0.0059574106708 -0.0043433122337 0.00069199781865 0.0065136780031
          0.010575004853 0.016877220944 0.010325743817 0.0034348976333 0.0038885502145 0.022915160283
          0.015436341986 0.018429482356 0.026329027489 0.00097709451802 0.00034133243025 -0.00017964988365
          0.0061969724484 0.0030455219094 0.0021372183692 0.00058756937506 0.0008056492079 0.01926166378
          0.022384213284 0.015659723431 0.0044949920848 -0.0013013959397 0.0048257010058 0.0014622545568
          0.0063073853962 0.0062659634277 -0.0024953284301 -0.0050513390452 0.00057952862699 -0.0016632340848
          0.010351528414 -0.0099101914093 0.033728785813 0.045551355928 0.030845144764 0.051957696676
          0.048037763685 0.028645342216 0.03784532845 0.01060289517 0.006351955235 0.011624615639
          0.00073632795829 0.0049336859956 0.0087549863383 0.02359915711 0.055931560695 0.021460784599
          0.034212205559 0.047521430999 0.0070174867287 0.031906928867 0.033193066716 -0.0072857728228
          0.057421270758 0.050204668194 0.031994324178 0.01944953762 0.015286806971 0.048665083945
          0.011298353784 0.018432870507 0.003057689406 -0.011641012505 0.011983077973 0.014919902198
          -0.053373809904 -0.053373809904 -0.023361168802 -0.023361168802 -0.028972031549 -0.028972031549
          -0.08367293328 -0.08367293328 -0.023535702378 -0.023535702378 -0.051954638213 -0.051954638213
          -0.0053865481168 0.014091666788 0.026465481147 0.019125390798 -0.0085569731891 -0.022898083553
          -0.02540612407 -0.015603565611 -0.0015693628229 -0.00096703483723 -0.012691204436 -0.024577941746
          0.0025416826829 0.0015141110634 0.0016809017397 0.0036320679355 0.00040857525892 0.00013887694513
          -0.0008817409398 -0.010282715783 -0.0032142261043 -0.0047319671139 -0.0062664481811 -0.0064835129306
          0.018321692944 0.039188507944 0.031077856198 0.029139582068 0.023237012327 0.0062441360205
          -0.00027925413451 -0.00011695411376 0.0050744782202 0.015367140062 0.028052374721 0.031984943897
          0.052806761116 0.052901439369 0.048875294626 0.025116207078 0.0031787331682 -0.029717171565
          -0.026041327044 -0.014630016871 -0.029424646869 0.0025370232761 0.0046851793304 0.0078868279234
          0.0010958713247 0.018116028979 0.022166252136 0.016398983076 0.025918222964 0.020330337808
          0.017217604443 -0.0010927749099 0.015927217901 0.0053795729764 -0.0014911311446 0.020107703283
          0.022800872102 0.015812385827 0.027768203989 -0.029120551422 -0.027450835332 -0.026986312121
          -0.025349562988 0.011087332852 0.048932604492 0.034536387771 0.012689635158 0.048203844577
          0.039984043688 0.010452860035 0.03877986595 0.037140693516 0.075979888439 0.087625943124
          0.072694018483 0.031739629805 0.016340460628 0.053155332804 0.063249096274 0.056685712188
          0.030412606895 0.0379319489 0.035000413656 0.023083936423 0.066926635802 -0.020973952487
          -0.0089545790106 -0.0069017363712 -0.0056708636694 -0.0030699584167 0.021536830813 0.020762918517
          -0.00027490852517 0.001064817654 0.016927435994 0.04618031159 0.050563812256 0.051353245974
          0.051503382623 0.047622464597 0.027689157054 0.012907797471 0.0007273669471 -0.0002919282997
          0.0020262701437 0.021985674277 0.036957252771 0.033205777407 -0.050050489604 -0.029884621501
          0.0066582090221 -0.01009240374 0.065138109028 0.22167827189 -0.0063390955329 0.00054296280723
          0.0030205149669 0.0040739155374 0.0039133960381 0.0028176156338 0.0029659152497 0.085950314999
          0.027610277757 0.036735728383 0.018632123247 0.011394716799 0.0063469600864 0.018746463582
          0.022573290393 0.017110191286 0.010131525807 0.012830909342 0.0080148633569 0.0075803762302
          0.015763442963 0.0099912313744 0.022428490222 0.018127631396 0.0092900972813 0.015430173837
          0.012389086187 0.017029002309 0.019500086084 0.011492511258 0.018732007593 0.017703451216
          0.020689662546 0.01583987847 0.019353102893 0.015054998919 0.015524594113 0.012506585568
          0.014528116211 0.017998758703 0.013567405753 0.017554283142 0.017166823149 0.013040095568
          0.017434254289 0.013109477237 0.019208302721 0.016713121906 0.013802560046 0.014300166629
          0.016450550407 0.011975230649 0.017734145746 0.011722764 0.015209442005 0.014591565356
          0.022440506145 0.014137034304 0.0132417446 0.013659466989 0.018108453602 0.016401728615
          0.013613255695 0.019430998713 0.015736263245 0.019036175683 0.014276839793 0.017891593277
          0.015445211902 0.010604919866 0.01582717523 0.010335445404 0.016410240903 0.017462683842
          0.014834655449 0.016720311716 0.015562275425 0.017913358286 0.01686832495 0.015934927389
          0.014832356013 -0.022568346933 -0.022210391238 -0.016396744177 -0.0087708523497 -0.0037349963095
          -0.0043166349642 0.018652230501 0.015130449086 0.016337325796 0.019582800567 0.021194394678
          0.022260272875 0.018156083301 0.019689368084 0.023822549731 0.021702038124 0.018436767161
          0.029598327354 -0.004415567033 -0.014890644699 -0.0082649067044 -0.0044559617527 -0.0015865955502
          -0.0024524442852 -0.0048816152848 -0.0048606912605 -0.0057380893268 0.028389470652 0.015719434246
          0.014567621052 0.010743787512 0.011796753854 0.0098028341308 -0.012325875461 -0.026380443946
          -0.026290737092 -0.025620767847 -0.023522954434 -0.014081737027 -0.0050086285919 3.2891041428e-06
          -0.0046303137206 0.0025935859885 0.004424798768 0.0021781004034 0.00030063628219 0.00021460454445
          -3.932053005e-05 -0.0016678905813 -0.003333527362 -0.01914460212 0.0036215765867 -0.01910498552
          0.0030309059657 -0.058478388935 -0.047939762473 -0.050439890474 -0.11070534587 0.0288012214
          0.028772933409 0.030542345718 0.03246800229 0.033486831933 0.035766545683 0.040575701743
          0.047786928713 0.06352943182 0.0039639244787 0.0067783370614 0.0080022448674 0.0092270337045
          0.010302682407 0.010748834349 0.012262816541 0.017055347562 -0.039139021188 -0.048598784953
          -0.040817216039 -0.069789461792 0.0006271188031 0.0012813706417 0.002160269767 0.0026926277205
          0.0032866478432 0.0033370342571 0.0032926772255 0.0040023219772 0.015636699274 0.032773133367
          0.019728222862 0.0216856841 0.023538481444 0.023123696446 0.02100369148 0.02071771957
          0.01839437522 0.014536346309 0.01472648792 0.016093160957 0.020352827385 0.033224571496
          0.031228870153 0.032720141113 0.034877814353 0.036179505289 0.038004130125 0.043086372316
          0.053688548505 -0.038217257708 -0.025954272598 -0.027072992176 -0.048259831965 0.023278940469
          0.016803363338 0.015731582418 0.017243295908 0.017558738589 0.017555642873 0.019474163651
          0.024768805131 0.010651528835 0.0046372301877 0.010236366652 0.0072884336114 0.015991080552
          0.017268890515 0.031363006681 0.014588599093 0.0087994132191 0.0074257995002 0.0091712186113
          0.0088184019551 0.0084378672764 0.009402576834 0.01077194605 0.01038067881 0.016700452194
          0.012215742841 0.016626309603 0.004945367109 0.0018816570519 0.0034047237132 0.0075519350357
          0.01056058798 0.01189156156 0.015354854986 0.05411626026 0.031628604978 0.023712787777
          0.018830632791 0.014726337977 0.0093889571726 0.0054978672415 0.0085202725604 0.022950446233
          0.021403850988 0.024598501623 0.014559150673 -0.0079191830009 0.00024213494908 -0.0014423601096
          -0.0083808721974 -0.022258868441 -0.024294439703 -0.025817621499 -0.028108820319 -0.007425814867
          -0.01615610905 -0.025589669123 -0.027684491128 -0.031162772328 -0.029347006232 -0.029253881425
          -0.025986960158 -0.010072731413 0.0045670373365 0.0064949882217 0.018018640578 0.011083918624
          -0.00042638773448 -0.0012281949166 0.00037905396312 -0.0013601867249 -0.00038311013486 -0.0028838862199
          -0.0037656773347 -0.0078583443537 0.00055503984913 -0.011963784695 -0.0062469309196 -0.0048108985648
          -0.01627334021 -0.013285516761 -0.019354229793 -0.022946102545 -0.011960571632 0.0037880218588
          0.0032394756563 0.0027990844101 0.0048668878153 0.0064798737876 0.0090494342148 0.022052433342
          0.1580157429 0.11153893173 0.037562154233 0.029978247359 0.023784471676 0.016674300656
          0.014206698164 0.018862420693 0.0007819609018 0.0064252275042 -0.0054499106482 0.0011296726298
          -0.010677575134 -0.0015765477438 2.2194704798e-05 0.00025856532739 0.0012229376007 0.0025923701469
          0.005319822114 0.019464312121 0.014619459398 0.018414117396 0.025822144002 0.032866906375
          0.041358366609 0.061849873513 0.11315196753 0.047031972557 0.0015221203212 0.00045984212193
          0.00061905290931 -0.00025462015765 -0.00011877588986 0.00023050908931 -0.0085034156218 -0.013179765083
          -0.021237723529 -0.012064297684 -0.0099289435893 -0.017339257523 -0.026887936518 -0.019758103415
          0.00083695049398 0.0020977838431 -0.00053854071302 -0.012025118805 0.004158874508 0.011061689816
          0.0052423616871 -0.0037120704073 0.0018004468875 0.0049873213284 0.0073046912439 0.0060638021678
          0.0081338882446 0.01203997992 0.0072107231244 0.014182177372 0.01289110072 0.015372847207
          0.015173777938 0.0026148373727 0.010027516633 0.0039018501993 0.0058980798349 0.00068953708978
          0.0033382861875 0.00026827622787 7.6359856394e-06 0.00017234752886 0.00069035036722 0.00035739311716
          0.00051229615929 0.0026349383406 0.017611069605 0.013776672073 0.021054057404 0.0096282083541
          0.016261354089 0.0066408594139 0.0043021431193 -0.017463015392 -0.0017136980314 -8.5016792582e-05
          0.0067495806143 -0.022659841925 -0.021478278562 -0.019121609628 -0.014906318858 -0.00074843841139
          -0.016648199409 -0.0011254407 0.0046891742386 0.0026799570769 0.0071633835323 0.0079930080101
          0.015305019915 0.010638449341 0.012395969592 -0.0012763333507 -0.0077941026539 -0.0056977323256
          0.0010502371006 0.011346872896 0.01527070161 -0.0032139278483 0.0061793145724 -0.0018672144506
          0.00088730774587 0.014179994352 0.02102452144 -0.0024094567634 -0.018988272175 0.0033168122172
          -0.00025601111702 0.0052704289556 0.014086744748 0.0099810501561 0.02146958746 0.008498522453
          0.0066957809031 -0.017189228907 3.2807525713e-05 0.0010814135894 -0.021299185231 -0.013241031207
          -0.023638008162 -0.018660353497 -0.0012371115154 0.013178944588 0.0088081648573 0.0085023585707
          -0.022148633376 -0.00045760665671 -0.0055269491859 0.005680935923 -0.0028134284075 0.010147042572
          0.010080215521 0.0032966961153 0.0032780158799 -0.017189865932 -0.059435736388 0.10113767534
          -0.067302770913 0.068491019309 0.065212965012 0.060624547303 -0.073661081493 0.05837071687
          -0.086777515709 -0.049982734025 0.0052379467525 -0.06987131387 0.065248288214 0.059789739549
          0.044839188457 0.036168888211 0.032289724797 0.029403192922 0.029050147161 0.030347155407
          0.030871082097 0.031263425946 0.032049551606 0.033030088991 0.034766882658 0.036368235946
          0.038100101054 0.039971359074 0.043800115585 0.052833903581 0.057612102479 0.013941355981
          0.014056507498 0.016947649419 0.018214864656 0.020298659801 0.022617153823 0.023852234706
          0.025547748432 0.026041818783 0.029330648482 0.028718050569 0.03025768511 0.031324148178
          0.031588386744 0.031967140734 0.031888321042 0.031217833981 0.030436651781 0.029277209193
          0.028527829796 0.027586935088 0.0084063662216 0.0084934607148 0.0099553158507 0.0098491581157
          0.011018337682 0.010500842705 0.013217744417 0.012281840667 0.01380054187 0.012745517306
          0.01662841998 0.014809436165 0.020239619538 0.051433756948 0.053975224495 0.038430720568
          0.02902116999 0.031042117625 0.03202169016 0.032820921391 0.032612539828 0.033556897193
          0.034938633442 0.0357064493 0.039727356285 0.044068526477 0.046446606517 0.051307056099
          0.012931709178 0.016964228824 0.021361650899 0.019092522562 0.02064547874 0.023899624124
          0.021392159164 0.023137113079 0.026669070125 0.024495033547 0.026817874983 0.028731165454
          0.028710788116 0.02939790301 0.031550642103 0.030473163351 0.030515331775 0.031668808311
          0.030581649393 0.030823938549 0.03073303774 0.030185269192 0.029135782272 0.010599786416
          0.012550403364 0.013597166166 0.01465344429 0.013456932269 0.016023637727 0.015971222892
          0.017300425097 0.015946444124 0.021138880402 0.022903194651 0.030885251239 0.046524703503
          0.037476271391 0.029314896092 0.031238626689 0.031660955399 0.032072398812 0.031406518072
          0.03218273446 0.032913435251 0.034034140408 0.03610701859 0.038078319281 0.03963990137
          0.04229259491 0.01301177498 0.014703422785 0.016858214512 0.017988614738 0.018536014482
          0.018811127171 0.0194317922 0.02074434422 0.021174697205 0.023065064102 0.025186322629
          0.025565257296 0.027193088084 0.028648143634 0.028782857582 0.029757266864 0.030521258712
          0.030794620514 0.031410858035 0.030150378123 0.030329287052 0.03016775474 0.03024799563
          0.014816979878 0.014697169885 0.01644276455 0.018649544567 0.017781816423 0.01729670167
          0.018653962761 0.020805126056 0.018577655777 0.018812153488 0.028000757098 0.02338344045
          0.042477507144 0.043647695333 0.03387754038 0.030957765877 0.030128458515 0.030532520264
          0.032191697508 0.032035246491 0.036286011338 0.036259818822 0.04160130024 0.020827066153
          0.023919217288 0.026621358469 0.02628752403 0.028337288648 0.020830240101 0.020017113537
          0.024364070967 0.032264299691 0.036806311458 0.029269054532 0.028863653541 0.031535901129
          0.032830089331 0.031809166074 0.021305149421 0.023044167086 0.025008257478 0.025591930375
          0.027954865247 0.024877764285 0.024285009131 0.028299007565 0.031459394842 0.027659665793
          0.026566900313 0.023022070527 -0.063816890121 -0.068273715675 0.045875452459 -0.04026158154
          0.06072287634 0.077470958233 0.064883321524 -0.0051674265414 0.066523350775 -0.025862274691
          -0.029078427702 0.011113793589 -0.033178303391 0.021310692653 0.037070244551 0.046950329095
          0.058308977634 0.010042977519 0.0032653750386 0.0032196564134 0.0043420004658 0.0042899004184
          0.0045536342077 0.0043813325465 0.0045614400879 0.0053815185092 0.0051300302148 0.005018081516
          0.0053383079357 0.0062655862421 0.012321861461 0.013266592287 0.03458339721 0.030120085925
          0.029812073335 0.029885632917 0.029972277582 0.030083673075 0.029953945428 0.027405001223
          0.028386414051 0.025989206508 0.026106746867 0.023222615942 0.023662324995 0.020471172407
          0.020300293341 0.020531421527 0.017527623102 0.016865519807 0.01422917936 0.012465530075
          0.011727761477 0.031786952168 0.031044177711 0.032169897109 0.031787909567 0.033882804215
          0.032728917897 0.033918257803 0.033171553165 0.038525100797 0.03658971563 0.044409859926
          0.040224634111 0.049970526248 0.028186591342 0.040369026363 0.041921898723 0.0056724613532
          0.006867159158 0.0073837842792 0.0065845092759 0.0073147127405 0.0065140435472 0.0055300104432
          0.0072062560357 0.0072639151476 0.010899649002 0.0089843096212 0.018142761663 0.030223498121
          0.029819397256 0.029584221542 0.029262872413 0.028315082192 0.029286913574 0.027829263359