<?xml version="1.0"?>
<VTKFile type="UnstructuredGrid" version="0.1" byte_order="LittleEndian" header_type="UInt32" compressor="vtkZLibDataCompressor">
  <UnstructuredGrid>
    <Piece NumberOfPoints="8458" NumberOfCells="4512">
      <PointData Scalars="Spannung:Lotrechte Dehnung YY">
        <DataArray type="Float32" Name="Spannung:Lotrechte Dehnung YY" format="ascii" RangeMin="-0.044321238995" RangeMax="0.12697935104">
          0.029896460474 0.029896460474 0.056656084955 0.011374950409 0.015687184408 0.046790022403
          0.017520809546 0.047385048121 0.016427399591 0.0053477152251 0.012863139622 0.012863139622
          0.054635368288 0.054635368288 0.043915849179 0.085071444511 0.023749269545 0.041272293776
          0.019385943189 0.0090930527076 0.051053769886 0.043467275798 0.043467275798 0.055922411382
          0.055922411382 0.044744897634 0.038318671286 0.0082644466311 0.016868917271 0.05161466822
          0.034677635878 0.088159389794 0.041211668402 0.041211668402 0.051504131407 0.051504131407
          0.047512430698 0.052785802633 0.052785802633 -0.012041750364 0.00096678745467 0.066326260567
          0.066326260567 0.054883155972 -0.015278495848 -0.01952787675 0.0090758539736 0.013988970779
          -0.0040081725456 0.013439682312 -0.0029430941213 0.013042062521 0.0090029388666 -0.026374123991
          -0.00035689724609 0.069215476513 0.069215476513 0.0125867147 0.0125867147 0.015621930361
          0.015621930361 0.002257704502 0.0047207265161 0.0032739334274 6.5669628384e-05 4.2919941734e-06
          1.1455471167e-06 3.8606276576e-06 0.063947439194 0.0084987552837 0.019864482805 0.010854482651
          0.063044779003 0.057464838028 0.0017648553476 -0.001716548577 -0.0028724521399 -0.0076085296459
          -0.002970098285 -0.0075783906505 -0.00092471408425 4.0950071707e-06 5.7351627447e-07 0.002431235509
          0.052761558443 0.046478331089 -0.0064038629644 0.011104161851 0.021595939994 -0.036564871669
          -0.03906385228 0.020033312961 0.01173374895 0.019557025284 0.02596683614 -0.0014513476053
          -0.0012956882128 -0.0021211463027 0.00023238496215 0.031433451921 0.040261302143 0.0032968884334
          0.005560522899 0.0035482582171 0.055858623236 0.011599016376 0.011414065026 0.0098549164832
          0.0085368584841 0.0075193000957 0.0067864526063 0.0058385492302 0.0049943779595 0.000967899221
          0.0021247486584 0.024806778878 0.016841834411 0.014059236273 0.014235272072 0.018475620076
          0.017087053508 0.016241002828 0.023254558444 0.0016331142979 0.0016771916999 0.0046223737299
          0.0059028575197 0.0071524009109 0.008032602258 0.0087357219309 0.010425460525 0.010822194628
          0.011991978623 0.059240162373 0.051110252738 0.039891663939 0.033065438271 0.027640655637
          0.023728597909 0.018913405016 0.014982963912 0.011061349884 0.014192554168 0.039759654552
          0.035844679922 0.03391411528 0.036189839244 0.039393190295 0.031957067549 0.032743755728
          0.026154462248 0.023914158344 0.022179437801 0.002232255647 0.001576601062 0.0030954112299
          0.0041924589314 0.0052189766429 0.0053593344055 0.0070071271621 0.0054579647258 0.010092367418
          0.082358710468 0.085614345968 0.0087010841817 0.0056654415093 0.0073229377158 0.0061352727935
          0.0047785444185 0.0038775485009 0.0029580285773 0.00065158336656 0.001194484299 0.026972817257
          0.023707298562 0.029636437073 0.033744972199 0.030627060682 0.03278305009 0.039522871375
          0.037352535874 0.045258440077 0.045384459198 0.01418599207 0.011005125009 0.014765859582
          0.019433138892 0.023453781381 0.028194107115 0.033039089292 0.040317099541 0.052360456437
          0.051750689745 0.037832643837 0.045548632741 0.0098668644205 0.0087198391557 0.0088302511722
          0.0074259596877 0.0080047398806 0.0084302518517 0.052514087409 -0.0016434554709 0.0070916810073
          0.0093605490401 0.0062118317001 0.0059202616103 0.0092115402222 0.0062463944778 0.0019196600188
          0.047967690974 0.0080825146288 0.0080529637635 0.0074559822679 0.0077491439879 0.0084904422984
          0.0085396552458 0.041640531272 0.012186810374 0.014309156686 0.0099372304976 0.01450554654
          0.00080673123011 0.00023117029923 5.609794971e-05 9.6428966572e-06 3.5911689338e-06 1.2891232473e-06
          3.5431912693e-05 0.00024897264666 0.011099623516 0.00060087238671 -7.08874868e-05 3.3176656871e-06
          3.8643152948e-05 2.2396461645e-06 9.0453386292e-06 -4.3235955673e-05 -4.4859760237e-05 0.00013837961887
          0.0012526393402 0.00095504551427 0.0011410436127 0.0022761241999 0.0025851859245 0.0007746272604
          0.00068370992085 0.0011166164186 0.0007146607968 0.001951904851 0.00082801457029 0.0002007525909
          2.8588816349e-05 3.0902050639e-05 2.4663092972e-06 9.9057672287e-07 2.8529188967e-07 -5.9989247347e-06
          1.9055563826e-05 0.00029263197212 0.0016178941587 -1.7983384168e-06 5.2990594668e-06 1.2706206689e-05
          6.563084753e-06 0.0012722641695 0.017706494778 0.01374807395 0.047094155103 0.055705461651
          -0.00014754819858 -1.8853294023e-05 7.3643138876e-07 1.365522894e-05 7.655115769e-05 0.00029050905141
          0.00025669360184 7.4356437835e-05 1.3572023818e-05 5.2251630223e-06 4.015056038e-05 0.00013596202189
          0.0016552122543 6.9982495916e-05 0.0049488819204 0.0027995170094 0.0029698226135 0.004246362485
          0.00050307216588 5.6737712839e-06 0.0037043015473 0.00033812486799 3.666459088e-05 7.130629001e-06
          1.0297555946e-06 2.3893073831e-06 1.1556791833e-05 0.00010102141823 0.00036960587022 0.00095933751436
          0.0012460632715 0.00095577404136 0.0017248113872 0.0085390731692 0.011596512981 0.011079041287
          0.010469147004 0.011100142263 0.011044624262 0.053399652243 0.052083857358 0.010466082022
          0.010959689505 0.011451174505 0.011832045391 0.011833571829 0.008166805841 0.041304927319
          0.039528220892 0.038609836251 0.03897709772 0.040403082967 0.016366709024 0.010833898559
          0.014209027402 0.040620412678 0.038960378617 0.038894806057 0.039853263646 0.041376840323
          0.019170481712 0.0077701406553 0.010086883791 0.012955361977 0.0053790234961 0.0015614862787
          0.0302634947 0.0038483664393 0.0035993969068 0.003718840424 4.7994590204e-06 8.7874714154e-06
          1.0430667317e-05 -0.00019085525128 0.0023310757242 0.00092411163496 0.022089758888 0.035625044256
          0.035249091685 0.021698659286 0.010981458239 0.0072241104208 0.013681256212 0.049844842404
          0.067106820643 0.044381462038 0.0011255253339 0.013209422119 0.0052440599538 0.00020984404546
          2.8066164305e-05 4.4006942517e-06 2.1108585315e-06 1.2383981812e-05 7.145843847e-05 0.00022481830092
          0.00063503184356 0.013669644482 0.010571462102 0.046327218413 0.058601189405 0.0013901264174
          0.001111264457 -3.618537221e-06 1.0505836144e-05 5.9171161411e-06 0.0016412839759 0.00036352415918
          4.7399982577e-05 4.6102486522e-06 3.1649161514e-08 2.8282829589e-06 8.9585710157e-06 -2.8979692956e-07
          0.00010243814177 0.0019903515931 0.00088979222346 -5.0683893278e-06 2.1685102183e-05 0.00045856594807
          0.0010861108312 4.900001295e-05 0.0018379379762 0.0014315751614 0.00053120148368 0.0040556513704
          9.0770836323e-06 0.00029340802575 -2.7677440812e-05 4.549347068e-06 4.7782242518e-07 0.005464666523
          0.0062244073488 0.0043728975579 0.0080617694184 0.0030922493897 0.0014076868538 0.012603614479
          0.019050739706 0.011402655393 0.016945362091 0.015112013556 -0.0017252637772 0.0043945508078
          0.0015747541329 0.005607938394 0.0058412053622 0.0065999208018 0.0071114022285 0.0063705029897
          0.0057048392482 0.0076203132048 0.0053421235643 0.0060355188325 0.0070087644272 0.0073799788952
          0.022523386404 0.011718039401 0.015957182273 0.0062761423178 0.0066632255912 0.0069453325123
          0.0058650253341 0.0053983768448 0.0079983314499 0.0048170555383 0.0063277268782 0.0066937049851
          0.0074860495515 0.005150466226 0.0056514041498 0.0068038040772 0.013282558881 0.0017448513536
          -0.00036060289131 0.026576966047 0.019675044343 0.032088696957 0.028073953465 0.019599344581
          0.053809899837 0.046622805297 0.042184147984 0.035534050316 0.040672488511 0.043709248304
          0.033633045852 0.046546339989 0.043729826808 0.041320338845 0.046692356467 0.02692993544
          0.02387121506 0.04744162038 0.028046410531 0.025739947334 0.045781102031 0.025672372431
          0.027865082026 0.0034112334251 0.0078202364966 0.008990559727 0.011910881847 0.014855353162
          0.010492125526 0.012545061298 0.014002635144 0.016647294164 8.6042615294e-05 0.0051262350753
          0.0086747007445 0.0049420432188 0.010039404035 0.0055600167252 0.0064739203081 0.01278484799
          0.000181643205 0.046087943017 0.052128240466 0.03902682662 0.03171781823 0.024763826281
          0.03131531924 0.011919165961 0.012538042851 0.023434760049 0.063609868288 0.048902582377
          0.05123379454 0.057056378573 0.053587254137 0.038780346513 0.027324642986 0.03548309207
          0.038178358227 0.045855455101 0.068803630769 0.034435778856 0.038797624409 0.059951387346
          0.015677358955 0.011610678397 0.014843849465 0.023523764685 0.026617113501 1.3478265828e-05
          4.04912862e-06 0.0015599828912 0.0010656084633 0.00027991618845 0.00018862854631 9.5669074653e-06
          1.7705124264e-06 3.11604731e-06 1.0689198461e-05 4.9322767154e-05 0.0003301933466 0.00089636136545
          0.0046779313125 1.0431524061e-05 0.0017701322213 0.0038749759551 -7.3853939284e-06 0.0033095707186
          0.0034502483904 0.0028007011861 0.0016688406467 0.00012263655663 -8.254867862e-05 -1.1922626072e-05
          7.0723967838e-06 0.014388813637 0.0065680043772 0.0041056564078 0.0071256118827 0.0064115813002
          0.0053114416078 0.0035211883951 0.00065592827741 0.00060425302945 0.00062325422186 0.0063665430062
          0.0044181710109 0.0048157162964 0.0039601260796 0.0015334268101 0.0084908725694 0.006279416848
          0.0019055586308 0.005523531232 0.00068400113378 0.0013542594388 0.0029504282866 0.0042912764475
          0.0054865079001 0.0053741615266 0.007262472529 0.0055422186852 0.0062972242013 0.013829085976
          0.02333150059 0.0079879555851 0.0031024650671 0.0020929197781 0.0044523258694 0.0036185539793
          0.0022333653178 -5.9019352193e-05 -0.0026078659575 -0.0018510224763 -0.0029135439545 -0.0027089808136
          -0.0027631006669 -0.0041875219904 -0.0020054404158 -0.0026418315247 -0.0016712772194 -0.00093073118478
          -0.0014070554171 0.0018159417668 0.0022821640596 0.0025035743602 0.0043594706804 0.00265112333
          0.0013443101197 0.0017907451838 0.00028908532113 -0.001835758565 -0.0031840463635 -0.0042462488636
          -0.0033796993084 -0.0044694505632 -0.0041836597957 -0.0028081263881 -0.0011480055982 0.00025539819035
          0.056344848126 0.048610601574 0.039619583637 0.035390648991 0.029610097408 0.024467041716
          0.019946534187 0.015040327795 0.011207131669 0.011008629575 0.018145352602 0.024908380583
          0.024877423421 0.016702732071 0.021715043113 0.015527177602 0.014435091987 0.012638672255
          0.0080891149119 0.0073091508821 0.0021022350993 0.0019561583176 0.0038301735185 0.0053570903838
          0.0071776458062 0.0091541502625 0.01182141155 0.019062060863 0.02999795787 0.042754787952
          0.052089124918 0.040281195194 0.030981481075 0.030317205936 0.032718345523 0.027276162058
          0.022582242265 0.017889251933 0.013720211573 0.010682829656 0.010816996917 0.010940084234
          0.0077019296587 0.013084808365 0.005960045848 0.0033134839032 0.002798861824 0.0015220108908
          0.0021844899748 0.0054933801293 0.0081651564687 0.0108791776 0.013902742416 0.017566092312
          0.024058252573 0.024313241243 0.019366530702 0.01512937434 0.010661548004 0.009987375699
          0.00728416536 0.006048602052 0.0047947652638 0.0082659190521 0.011568088084 0.015318037011
          0.019449871033 0.044183742255 0.032011259347 0.022607373074 0.010659047402 0.0086072338745
          0.0070094391704 0.0053237001412 0.0025541430805 0.0013969332213 0.0021791337058 0.008426819928
          0.009605598636 0.010626067407 0.014283038676 0.018830738962 0.020129216835 0.021352944896
          0.029346032068 0.029627161101 0.020439486951 0.010470071808 0.012122334912 0.016254875809
          0.02034047991 0.025399904698 0.030119357631 0.035995043814 0.041423037648 0.048050574958
          0.049160905182 0.055510669947 0.040435113013 0.031980611384 0.022100105882 0.015030040406
          0.013093611225 0.010509576648 0.0082276538014 0.00650127884 0.0023764483631 0.0017110301415
          0.002746400889 0.0041749780066 0.0063295881264 0.0073118805885 0.0095767434686 0.015051887371
          0.013466562144 0.010427206755 0.014371941797 0.018227379769 0.023386370391 0.028134655207
          0.03241546452 0.03093008697 0.025128133595 0.017670342699 0.014335644431 0.01169835683
          0.0089940959588 0.0050964178517 0.0078539540991 0.0083123389632 0.00984468963 0.012595583685
          0.017230620608 0.021061537787 0.013771002181 0.0080614704639 0.019822141156 0.006723633036
          0.0020479070954 0.0031545569655 0.0019700315315 0.0027337889187 0.0069865472615 0.018778346479
          0.015366977081 0.016898361966 0.016834130511 0.011580385268 0.013369354419 0.015312804841
          0.0061035570689 0.0032662507147 0.0010045737727 0.0014230629895 0.0032213870436 0.0076388441958
          0.018238333985 0.0045761563815 0.012650976889 0.013312074356 0.011432971805 -0.0006336857914
          0.017921911553 -0.0020073379856 -0.0014634099789 0.0015622553183 0.0080094868317 0.007798995357
          0.0052491528913 0.0016731369542 -0.0021827956662 -0.00093651865609 -0.0013206002768 0.029099084437
          0.031553909183 0.027663705871 0.0248566214 0.025395771489 0.028239138424 -0.0066850176081
          0.00048561848234 0.00036317203194 0.0019110655412 0.00033663510112 0.0016953311861 0.0011697256705
          0.00055422645528 -0.00063392182346 0.04276509583 0.043976802379 0.022130984813 0.02493048273
          0.03220057115 0.034616548568 0.039725877345 0.040173497051 0.040542185307 0.019362153485
          0.0177043695 0.017240919173 0.01825994812 0.020357895643 0.024387946352 0.034939259291
          0.029719972983 -0.010509059764 0.031491436064 0.032432872802 0.010528612882 0.018759980798
          0.018297411501 0.018854707479 0.018458550796 0.01964709349 0.021168122068 0.025186331943
          0.031712692231 0.039369668812 0.034417238086 0.041019521654 0.040375109762 0.048619199544
          0.045329000801 0.044482879341 0.041328776628 0.041043195873 0.03927628696 0.038792204112
          0.038561657071 0.039530556649 0.042150069028 0.030774008483 0.033885803074 0.030361609533
          0.022681578994 0.0083804139867 0.0023741750047 0.012676605023 0.033642984927 0.029507372528
          0.045119144022 0.04126893729 0.038630444556 0.037852156907 0.041000470519 0.038111772388
          0.040660448372 0.026095755398 0.03045704402 0.035819508135 0.037551142275 0.024787610397
          0.022111481056 0.025370586663 0.026232454926 0.028732098639 0.035515733063 0.034428421408
          0.026407586411 0.033008921891 0.035775292665 0.022159082815 0.026328595355 0.023066082969
          0.026817519218 0.025549516082 0.027398804203 0.035603046417 0.030946038663 0.037722211331
          0.036452185363 0.033680107445 0.03333581239 0.037738479674 0.034353230149 0.039565898478
          0.03482721746 0.033028628677 0.034280218184 0.02684003301 0.031858611852 0.030486643314
          0.028005337343 0.031759880483 0.03260627389 0.024470545352 0.016384331509 0.013164386153
          0.015266478062 0.011644735932 0.014464612119 -0.00095827475889 0.025636788458 0.017088133842
          0.0080538447946 0.031435087323 0.066304668784 0.04523826763 0.050742164254 0.025390222669
          0.021291704848 0.037833686918 0.029071118683 0.030817352235 0.02792894654 0.023493999615
          0.024277770892 0.037053134292 0.090097524226 0.089243471622 0.083221055567 0.081796787679
          0.046763025224 0.074895657599 0.023323869333 0.022589841858 0.015228022821 0.0038206588943
          0.09038708359 0.096726454794 0.07618662715 0.093184240162 0.046811174601 0.060596000403
          0.028525745496 0.022310258821 0.016000458971 0.015977106988 0.02150131017 0.013370107859
          0.013928471133 0.0027086858172 0.035392511636 0.059331275523 0.047786619514 0.041777636856
          0.031649503857 0.0036167544313 0.019477836788 0.024458518252 0.00022408821678 2.3594502636e-05
          0.00044593171333 9.9837714515e-05 3.1765412132e-05 1.1817986888e-05 3.414773164e-05 0.029348507524
          0.027748739347 0.027141055092 0.031654447317 0.024520060048 0.027437224984 0.0312936306
          0.027797659859 0.032730650157 0.023299116641 0.025418985635 0.024477254599 0.026664169505
          0.023844366893 0.0303465873 0.030583411455 0.030635097995 0.027150442824 0.025970639661
          0.022563574836 0.027687329799 0.026793969795 0.027478229254 0.028933636844 0.033156476915
          0.028206998482 0.027931936085 0.026136312634 0.028786594048 0.027238469571 0.028495697305
          0.027894515544 0.035391785204 0.023830169812 0.023243794218 0.024629773572 0.02638736181
          0.021695937961 0.023869521916 0.02467407845 0.02394939959 0.020507462323 0.030341940001
          0.026516625658 0.024990692735 0.027531469241 0.043629277498 0.041564956307 0.021900720894
          0.030110379681 0.023908762261 0.025692773983 0.034664191306 0.024016812444 0.026408132166
          0.025094525889 0.02981284447 0.023407265544 0.027436489239 0.030122930184 0.025880564004
          0.029567919672 0.027169374749 0.023373708129 0.031322207302 0.027406621724 0.028416339308
          0.0014940617839 0.0032821509521 5.8393019572e-05 1.1193707905e-05 1.6541788455e-06 3.7142970086e-06
          1.0547360944e-05 2.7441387829e-06 7.2662092862e-05 0.00054176180856 0.0024782875553 0.0048626502976
          0.0042777410708 0.0052023106255 0.0048554483801 0.0065359398723 1.230475732e-06 5.630070973e-06
          6.4448839112e-05 0.000268787815 0.0019036385929 0.0044492133893 0.0055872993544 0.0056554903276
          0.0058252885938 0.0050109098665 0.003499657847 0.0057774181478 0.0044273734093 0.0053583271801
          0.0066848662682 0.0050527434796 0.0045374371111 0.0051262471825 0.0039921714924 3.5461158404e-05
          2.9218545023e-06 1.8153046994e-06 2.004610451e-06 5.2584973673e-06 7.5599149568e-05 0.00059678772232
          0.0025441276375 0.0024252778385 0.0040329182521 0.0045175217092 0.005362787284 0.0042650634423
          0.0053714895621 0.0048205517232 0.0024532270618 0.00026221724693 2.2504153094e-05 0.00041840353515
          0.00038423330989 8.740346675e-05 1.5647192413e-05 -9.5444261206e-07 -1.5977087969e-05 -0.00011594763055
          -0.00035328778904 -0.00057865562849 1.3189467609e-05 0.00011112473294 0.00037088440149 0.00046942578047
          0.00030322716339 3.4446926293e-05 0.0017877311911 0.00014252257824 2.2542017177e-05 2.3898943255e-05
          1.6248104657e-05 5.3684884733e-06 6.1029618337e-06 2.2324840756e-05 0.00010303267482 0.00039415521314
          0.026187926531 0.02805480361 0.0344822146 0.039604909718 0.0030280645005 0.0050811106339
          0.0064159538597 0.0053988420404 0.004067776259 0.00082700024359 0.0010563094402 3.067536818e-05
          0.00011779602937 0.00031321935239 0.00091387052089 0.0003171908902 9.0821420599e-05 2.2290343622e-05
          1.6962243535e-05 0.021860009059 0.01021726802 0.026567101479 0.024764928967 -0.0013693810906
          0.011133987457 0.010533550754 0.035908993334 0.038078136742 0.030278371647 0.021898366511
          0.021589757875 0.02593883127 0.025743469596 0.029787937179 0.030657727271 0.021336989477
          0.015605433844 0.00011437997455 -0.00029736227589 -0.00077225774294 -0.0013924987288 0.0013305401662
          -0.0045306617394 0.001087950659 0.0027193822898 0.0008827279089 0.00022352865199 0.0023023253307
          -0.00091203348711 -0.00088872230845 -0.0052842511795 -0.012216616422 -0.0050693503581 0.0025197125506
          0.034051798284 0.049777511507 -6.9865003752e-05 0.024690365419 0.026330269873 0.02928015776
          -0.0035535851493 0.02942978777 0.030420029536 -0.01378322579 -0.00014423538232 0.055301811546
          0.054384186864 0.030436871573 0.029248809442 -0.00031496747397 -0.00024254216987 0.038188152015
          -0.0099267326295 0.012845020741 0.019561568275 0.021870685741 0.023592391983 0.023919068277
          0.027848141268 0.0084364200011 0.020268220454 0.01804914698 0.016846068203 0.024663608521
          0.025113293901 0.0073731658049 0.0041599678807 0.0031110949349 0.0023822502699 0.0052180066705
          0.0031175015029 0.0028214910999 0.0045176334679 0.0059280344285 0.014398132451 0.0035993850324
          0.0010156817734 0.00026019939105 0.0036328113638 0.0036034549121 0.0018048824277 0.00040423229802
          0.0019105628598 0.0031728339382 0.0010347320931 0.0020610406063 0.0003596166498 -0.00069440004881
          0.041939031333 0.034650433809 0.035580776632 0.028607223183 0.021453242749 0.010927430354
          0.012748594396 0.015023243614 0.027071926743 0.031895875931 0.031557202339 0.025798516348
          0.022944722325 0.019775403664 0.011309707537 0.009818052873 0.03178627789 0.021807318553
          0.01907642372 0.013033198193 0.015472483821 0.026464205235 0.014875411987 0.018115922809
          0.020346434787 0.011414288543 0.038764674217 0.029406264424 0.018081642687 0.012713957578
          0.011789859273 0.0097544780001 0.01727514714 0.028649676591 0.032008729875 0.033874101937
          0.023363977671 0.034352410585 0.01952804625 0.015904862434 0.014725135639 0.013601313345
          0.024551233277 0.016536140814 0.019704658538 0.027049014345 0.027121193707 0.021578842774
          0.019450711086 0.018411308527 0.024112131447 0.022595409304 0.020970305428 0.02133073844
          0.032401312143 0.027087714523 0.031804505736 0.027116298676 -0.00020194797253 0.033094670624
          0.03384193033 0.034050874412 0.024050939828 0.033621005714 0.031768705696 0.02518075332
          0.011896878481 0.017036935315 0.022886201739 0.017527069896 0.038290638477 0.03938882798
          0.038871843368 0.03226051107 0.031526960433 0.016791261733 0.021151896566 0.038298174739
          0.033818837255 0.027161534876 0.032508358359 0.027380736545 0.027188815176 0.045873366296
          0.044474847615 0.040387447923 0.030920092016 0.02327570878 0.026857549325 0.029428454116
          0.036073155701 0.028955632821 0.031322099268 0.0008072758792 0.0028435296845 0.025818875059
          0.0072355102748 0.042252361774 0.023116229102 0.022672016174 0.00057233945699 0.0010240146657
          0.00085992785171 0.0026796872262 -0.00040715819341 0.0086257569492 0.03257734701 0.0080111725256
          0.024980926886 0.0039924825542 0.0060579646379 0.018291223794 0.022979700938 0.025026619434
          0.019260535017 0.026751190424 0.0014618365094 0.00027775869239 0.011134212837 0.025298431516
          0.035660203546 0.03423640132 0.033130645752 0.024993134663 0.03278554976 0.022314911708
          0.0087565332651 0.0065082544461 0.010682912543 0.0080375019461 0.012186883949 0.019537499174
          0.0016723258886 0.037661761045 0.023959275335 0.040693975985 0.0074026887305 0.0038100718521
          0.0036962234881 0.00021008827025 0.00028117431793 0.0093256030232 0.017679680139 0.013611154631
          0.021001212299 0.019256208092 0.017553139478 0.022997286171 0.00574014429 0.016979947686
          0.0096511859447 0.026506496593 0.029109112918 0.028506308794 0.040676817298 0.034575380385
          0.026476323605 0.0072293723933 0.0041284444742 0.0070522073656 0.016234908253 0.038804814219
          0.023845946416 0.014347525313 0.030040636659 0.02814280428 0.025118816644 0.012390394695
          0.013275992125 0.0069894250482 0.025554187596 0.017121057957 0.024090854451 0.017431845888
          0.01727668196 0.036399256438 0.028733849525 0.0088288988918 0.002337849699 0.010855555534
          0.03246396035 0.038339033723 0.035666014999 0.044922947884 0.044922947884 -0.0017072673654
          0.0093360636383 0.0099967075512 0.00976822339 0.0092216925696 0.008011107333 0.0074728387408
          0.0063502760604 0.0057076602243 0.0040903240442 0.00080653687473 0.007598310709 0.042184196413
          0.056439965963 0.020301319659 0.017101375386 0.015353953466 0.018532183021 0.019702177495
          0.020328661427 0.016940660775 0.018666550517 0.056827150285 0.042619936168 0.0058628469706
          0.0016049543628 0.0035272003151 0.0055120652542 0.0066410852596 0.0077387299389 0.0085979122669
          0.0096132196486 0.010967507027 0.011709522456 0.0064127249643 0.0051848767325 0.044926434755
          0.044926434755 0.06142905727 0.080657288432 0.067026287317 0.04490358755 0.036345481873
          0.030168274418 0.026129160076 0.021493302658 0.017522934824 0.013061566278 0.01165713463
          0.01824692823 0.033756189048 0.051145028323 0.037655223161 0.035042434931 0.034011851996
          0.042164541781 0.038938965648 0.034659266472 0.031398613006 0.028326425701 0.021980872378
          0.040811575949 0.018873460591 0.0048284633085 0.0016119746724 0.0023584596347 0.0037241228856
          0.0046129235998 0.0055614053272 0.0063103684224 0.0078888610005 0.0062675257213 0.024380169809
          0.089407302439 0.068529635668 0.045193582773 0.045193582773 0.083379946649 0.055969294161
          0.016259860247 0.0052004461177 0.0082167061046 0.0068426504731 0.0052874335088 0.0045208078809
          0.0035458232742 0.0023731684778 0.00060550105991 0.0041765933856 0.017572186887 0.04135331884
          0.0259613581 0.028842581436 0.03358983621 0.035956658423 0.033728834242 0.040510322899
          0.042023029178 0.04445374012 0.045163381845 0.086289681494 0.05189473927 0.02198266983
          0.012653508224 0.013231860474 0.017592258751 0.022133439779 0.025966692716 0.030437735841
          0.036064073443 0.04547913745 0.064280293882 0.041620980948 0.094105660915 0.05273713544
          0.05273713544 0.044334132224 0.01104590483 -0.0072238128632 0.063550956547 0.063550956547
          -0.014219589531 0.063221618533 0.011886929162 0.011228107847 -0.022898327559 0.0091627379879
          0.0089117679745 0.0083908932284 0.0080522922799 0.0079915476963 0.011547160335 0.022274404764
          0.036663014442 -0.0086117917672 0.0021763376426 0.012546813115 0.010380864143 0.0091339843348
          0.010683047585 0.012670866214 0.0076621216722 0.003953889478 0.0024919845164 0.025127300993
          0.032873153687 0.0102068251 0.0078068161383 0.0078917266801 0.0072923684493 0.0081030735746
          0.0085948370397 -0.02370727621 0.010119288228 -0.0039173262194 0.066115923226 -0.026868790388
          0.012725894339 0.012916899286 0.014105359092 0.0097730774432 0.0067155472934 0.0095964819193
          0.020051745698 0.0022322710138 0.00047462753719 0.00011701368931 2.5599094442e-05 4.353559234e-06
          3.7028144106e-06 1.3307350855e-05 0.00010176899377 0.0012170254486 0.0068562156521 0.02172799781
          -0.00072569353506 0.0016947677359 -0.00019472875283 -5.9203208366e-05 -1.7966669475e-05 4.2734486669e-06
          3.1305239645e-06 2.4069429401e-06 2.0682182367e-06 2.8378664751e-07 1.0821690921e-06 4.554523457e-06
          8.9214208856e-06 -1.040666757e-05 0.0011485473951 0.00163208507 0.0024441522546 0.0012425415916
          2.3131149646e-05 0.0011379176285 0.001068313024 -3.0382010664e-05 0.0017053472111 -2.4134464184e-05
          -8.6942389999e-07 -2.250639227e-06 -9.6373571523e-07 -2.1720809684e-07 1.7584849274e-06 8.5530125205e-09
          7.9308993008e-06 3.5310462408e-05 0.00021140740137 0.0011925924337 -5.8429191085e-06 -4.471817374e-05
          8.001515198e-06 9.8907685242e-06 5.6130411394e-06 0.0014391897712 0.014499817975 0.022831169888
          0.014958752319 0.012385860085 0.04093317315 0.037231724709 0.036804310977 0.045369397849
          -0.0051358598284 -0.0025513756555 -0.00035002880031 -6.8480600021e-05 -1.4490216927e-05 1.5699031337e-06
          3.24231587e-05 0.00015277942293 2.4388034944e-05 -0.0060733975843 -0.011006782763 -0.0044092424214
          0.00037226869608 0.00015272124438 2.4845217922e-05 3.3033666114e-06 1.0363170304e-06 -2.2225077601e-07
          -9.0651360551e-07 -2.812088951e-06 2.0900895379e-06 1.477243768e-05 -4.4427297325e-06 0.0039489273913
          0.0032163970172 1.8199745e-06 0.0040527824312 1.3236770428e-05 8.606270967e-06 0.0040634064935
          2.8501492579e-06 0.00031893487903 4.5057047828e-05 8.618967513e-06 -7.9067312697e-08 -5.7425222622e-07
          3.0474816413e-06 -6.4120908974e-06 3.7363442971e-06 0.0013851294061 3.6103342609e-06 0.0018558742013
          0.0020273260307 0.062399994582 0.062399994582 0.048925586045 0.048925586045 0.0071331076324
          -0.0011218409054 0.012639456429 0.011457706802 0.010803797282 0.010689703748 0.010635368526
          0.012421702966 -0.02262186259 0.048722360283 0.0066159996204 0.042068999261 -0.023111414164
          0.012914005667 0.010521700606 0.011207621545 0.011676562019 0.01189606823 0.012553651817
          0.0066930078901 0.0028339496348 0.043553598225 0.039820216596 0.039025876671 0.038681793958
          0.039031181484 0.04577017203 0.0158224646 0.011927265674 0.01225033775 0.012514226139
          0.045140907168 0.039276469499 0.038895174861 0.038994990289 0.041031777859 0.043051369488
          0.022218897939 0.026284618303 0.021703306586 0.012014590204 0.0097939055413 0.0086337085813
          0.011732724495 0.0093941278756 0.01544773113 -0.00024632868008 -0.00027804385172 0.0056983591057