<?xml version="1.0"?>
<VTKFile type="UnstructuredGrid" version="0.1" byte_order="LittleEndian" header_type="UInt32" compressor="vtkZLibDataCompressor">
  <UnstructuredGrid>
    <Piece NumberOfPoints="8458" NumberOfCells="4512">
      <PointData Scalars="Spannung:Scherdehnung YZ">
        <DataArray type="Float32" Name="Spannung:Scherdehnung YZ" format="ascii" RangeMin="-0.08886115998" RangeMax="0.085023917258">
          -0.059092719108 -0.059092719108 -0.039116743952 0.031938143075 0.014200733975 0.0080267693847
          -0.00011804840324 -0.0083115715533 -0.014493255876 -0.020718630403 0.069103233516 0.069103233516
          -0.019267655909 -0.019267655909 0.00014838084462 -0.07685123384 -0.022653041407 -0.016747841612
          -0.0042087612674 -0.0077720331028 -0.05336163193 -0.072110183537 -0.072110183537 0.067763902247
          0.067763902247 0.038827091455 0.0495605506 0.0071237259544 0.0058439718559 0.011910678819
          0.021737188101 0.079589530826 0.011116540991 0.011116540991 -0.044348217547 -0.044348217547
          -0.041200388223 0.046693697572 0.046693697572 -0.0066776047461 0.015305314213 -0.054030351341
          -0.054030351341 -0.045587245375 -0.011750726029 0.019072577357 -0.017431007698 -0.020653871819
          -0.0026429207064 0.00092532270355 0.0016577363713 0.019713902846 0.018741147593 -0.02515116334
          0.011432850733 0.058338452131 0.058338452131 0.039025917649 0.039025917649 -0.037323292345
          -0.037323292345 -6.8537781317e-07 0.00034454124398 0.00045731433784 0.00018937878485 -2.6687018817e-08
          9.4815774787e-08 1.5530160908e-06 -0.003944253549 0.00078843376832 -0.05988689512 -0.0028713596985
          0.0027705582324 -0.08886115998 0.0010518706404 0.0001398385939 0.00076476001414 -0.00029514750349
          -0.016064697877 0.0071016815491 0.00022361720039 7.5308712155e-08 7.2497846304e-07 0.00096962641692
          0.044938787818 0.042460348457 -0.0057726185769 0.020169580355 0.026303719729 0.036592107266
          -0.038122344762 -0.025957504287 -0.020243735984 0.057434532791 0.0062658428214 -0.00054077582899
          -0.00066963827703 -0.00055639917264 -1.9797254936e-05 -0.041995808482 0.054188780487 -0.00070769106969
          0.00012010916544 -0.0010605547577 0.085023917258 0.0061193159781 0.026895098388 0.021496659145
          0.017591260374 0.015327436849 0.013610211201 0.01150599122 0.009464985691 0.0061575751752
          0.0054177562706 0.0074544893578 0.0058752368204 0.0032772629056 0.0016416768776 -0.0018239066703
          -0.0044902414083 -0.0056139677763 -0.0080772293732 -0.0051096067764 -0.0057169836946 -0.0097507722676
          -0.01161032822 -0.014085716568 -0.016114955768 -0.017874756828 -0.020824573934 -0.026376083493
          -0.00053038680926 -0.062923111022 -0.05134075135 -0.04114722088 -0.034112531692 -0.029516240582
          -0.025583051145 -0.021002013236 -0.01656944491 -0.012042232789 -0.012949984521 -0.018592702225
          -0.016873048618 -0.015551620163 -0.016618309543 -0.015142930672 -0.013958842494 -0.014678228647
          -0.011511767283 -0.0113466857 -0.0084937186912 -0.0066590635106 -0.0061339996755 -0.0076057012193
          -0.0098142847419 -0.011651382782 -0.013687157072 -0.016018314287 -0.018317025155 -0.026539986953
          -0.074848718941 0.066312715411 0.0263070371 0.018254455179 0.016362173483 0.013752554543
          0.011750021018 0.0095450747758 0.0072032762691 0.0062714614905 0.0062709460035 0.0098078362644
          0.0099815577269 0.012643429451 0.012924870476 0.014037354849 0.014041126706 0.017086220905
          0.016284406185 0.018490845338 0.016918668523 0.011889979243 0.011983555742 0.01642470248
          0.021092230454 0.02548857592 0.02963992022 0.034148879349 0.041231047362 0.05170243606
          0.061752166599 0.036269195378 -0.04097757116 -0.005940541625 -0.017458856106 -0.016941990703
          -0.016090840101 -0.016588333994 -0.017584351823 -0.039804957807 -0.01105536148 -0.0077255018987
          -0.0045173829421 -0.0020789864939 0.0029421877116 0.0050521548837 0.0069989892654 0.012762211263
          0.037002429366 0.017555603758 0.01684596017 0.016148516908 0.016397530213 0.017194794491
          0.0046085673384 0.04327378422 -0.027811681852 -0.0012795875082 0.025530070066 0.0027380527463
          -0.00012034654355 -2.1215144443e-05 -2.5002702841e-06 -2.6429564315e-08 -1.0481661548e-06 -2.1610396743e-06
          -2.3141432393e-05 -0.00010058529733 0.0055970214307 0.0019769729115 -1.1359105883e-05 -3.125324838e-06
          3.4008758121e-07 4.2745014071e-06 -2.7808471259e-06 -1.0736507647e-06 -4.0605911636e-05 -0.00020530972688
          -0.00017378108168 -7.275750977e-05 0.00062576780329 0.0010760618607 0.0011717679445 0.0009986187797
          -0.0005176133709 0.0011878984515 0.0010482373182 0.00094233034179 0.00082963600289 0.00028406150523
          2.2732338039e-05 1.7587297407e-05 8.6894982587e-07 -2.7787196544e-08 7.0635485372e-07 4.202548098e-06
          2.7870884878e-05 0.0001641313138 0.00094498950057 2.2736999199e-06 1.0334032595e-05 3.0941708246e-05
          3.7428308133e-05 0.0005604152102 -0.050494223833 -0.049701817334 -0.04142844677 -0.049057707191
          -1.3776644664e-05 3.5272475429e-07 1.6297008187e-07 -1.9364561012e-06 -6.7062705966e-06 -9.8979217e-05
          -6.1053026002e-05 -1.0453438335e-05 -1.9883723326e-06 2.8782726531e-06 1.6832540496e-05 8.3684542915e-05
          -8.4248247731e-05 -0.00049358548131 0.00074893597048 0.00074657524237 0.00098711880855 0.0011642696336
          8.0465528299e-05 8.6317095338e-06 0.0011355809402 0.00017250899691 1.4818021555e-05 5.3398357522e-06
          6.5676141503e-07 8.1837737298e-07 5.8462755987e-06 -2.3630467695e-05 -0.00017581069551 0.0003100707836
          -0.00026142358547 -0.00020954913634 -4.1793457058e-05 0.006882798858 0.019400626421 0.018745869398
          0.018094966188 0.018524009734 0.018805954605 0.04383591935 -0.042674724013 -0.018322430551
          -0.018568884581 -0.019226644188 -0.019247954711 -0.019967349246 -0.0048874448985 -0.036741822958
          -0.035719245672 -0.034758165479 -0.0348261334 -0.035866104066 0.028697321191 0.0005215628189
          -0.028802312911 0.036218039691 0.035068109632 0.03516561538 0.035624843091 0.036804802716
          0.050804130733 0.017058074474 0.018910840154 0.012060713023 0.0024244959932 0.00020878708165
          0.020539263263 0.0041895885952 -0.002451854758 0.0017787059769 -5.55111626e-07 -9.6140161077e-07
          -2.9680059015e-06 2.0679874069e-05 -0.0047684530728 -0.0019176822389 0.035126641393 0.042031694204
          -0.042132828385 -0.034617763013 -0.019010962918 -0.016959384084 -0.012398049235 -0.05884630233
          -0.06271032989 -0.038811169565 -0.00025282183196 -0.0047968439758 -0.0028273281641 -4.0039838495e-05
          1.6067744582e-05 1.0400809742e-06 1.202370413e-06 2.9062638873e-07 1.8462343405e-06 1.9681398044e-05
          0.00030077047995 -0.0028153765015 0.04734415561 0.04430019483 0.048894736916 -0.00029576598899
          -0.00064489088254 -3.3364995033e-05 -2.1371486582e-05 -3.8027369555e-06 -0.00085697515169 -0.00010890267004
          -1.2065353076e-05 -3.7924539811e-06 1.8156002257e-09 -9.3326764272e-07 -4.6855643632e-06 -8.3150716819e-06
          -4.5608110668e-05 -0.00070275290636 -0.00067558512092 -2.7453129405e-06 -1.290297223e-05 -0.00036844224087
          -0.0010851178085 -0.00069595244713 -0.0009737467044 -0.00050857220776 0.00027179872268 0.00033454786171
          2.1538642159e-06 0.00020355613378 3.7570396671e-05 7.051196917e-06 1.2633765145e-08 0.0023726737127
          0.0026454336476 0.0023712986149 0.0059391525574 0.0034593369346 0.001080977032 0.009367281571
          0.018351947889 0.01023057662 0.010036158375 0.01448106952 0.0015098623699 0.004929357674
          0.0055348025635 0.0027323483955 -0.014542840421 -0.017509661615 -0.016685912386 -0.015236123465
          -0.014644610696 -0.0187754035 -0.012870021164 -0.014846474864 -0.01578560099 -0.016435407102
          -0.021778270602 -0.0067558144219 -0.012475412339 0.017290724441 0.016131633893 0.015960201621
          0.014670185745 0.014051812701 0.018264943734 0.013014323078 0.014669589698 0.015506953001
          0.016745917499 -0.0022410911042 -0.0018393381033 -0.0034070052207 -0.006369470153 -0.0024048076011
          -0.00080686673755 0.031512025744 0.01746773161 0.0023395784665 -0.0043044206686 -0.017226982862
          -0.081737719476 -0.08075734973 -0.06345833838 -0.05896178633 -0.064050607383 0.051773823798
          0.058954119682 0.062642991543 0.069444969296 0.07127251476 0.045186959207 0.022697884589
          0.023155206814 0.040328726172 -0.022002644837 -0.024037186056 -0.03747555986 -0.0020427331328
          0.0011036153883 0.00014968743199 -0.0062523875386 -0.0099398717284 -0.014434212819 -0.018330503255
          -0.017674855888 -0.017566425726 -0.019501533359 -0.026786617935 -0.0007201936096 0.0050199460238
          0.011137440801 0.012644032948 0.015794603154 0.013912184164 0.015004333109 0.019367197528
          0.014141366817 -0.044747181237 -0.023292025551 -0.020244760439 -0.020205488428 -0.02307292074
          -0.013890693896 0.018735200167 0.015213972889 0.019045574591 0.061594102532 0.057324126363
          0.050358086824 0.035880848765 0.037648804486 0.037854094058 0.01602017507 -0.0014679967426
          -0.036529395729 -0.035083051771 -0.038391847163 0.019951840863 0.019203929231 0.021455734968
          -0.015673937276 -0.017148027197 -0.020011408255 0.011776842177 0.017903445289 1.5789773897e-05
          1.5247844203e-05 1.2792484085e-05 -0.00034487294033 -4.0235045162e-06 -5.0772273426e-06 6.7537183668e-07
          -3.5493235373e-07 -9.9190754099e-07 -5.0182839004e-06 -3.0202045309e-05 -0.00013921450591 -0.00044163357234
          -0.00058631272987 6.0847828536e-06 -0.00070844136644 -0.00090797041776 8.9709792519e-06 -0.00087632256327
          -0.00097867439035 -0.00075242656749 -0.00049616832985 -0.00010088123963 7.7548997069e-05 -1.9349879949e-05
          -4.2385404413e-06 0.012055419385 0.014279700816 0.0098960651085 0.015466711484 0.01331434492
          0.011179588735 0.0089535778388 0.0062859221362 0.0054569425993 0.0039082495496 0.007876179181
          0.0046930471435 0.004120694939 0.0013581293169 -0.00040318278479 -0.0031029025558 -0.0066918190569
          -0.0036494135857 -0.0069462587126 -0.0042471191846 -0.0061289337464 -0.007805487141 -0.009551727213
          -0.01156256441 -0.011971053667 -0.015743482858 -0.013430885039 -0.010078054853 -0.012097706087
          -0.00018227250257 0.0018258107593 -0.0018373441417 0.0036972477101 0.010662287474 0.0089807109907
          0.0072786561213 0.0048272563145 0.0029026151169 0.0038985284045 0.0030759538058 0.0018083559116
          0.00091660203179 -0.0010978376959 -0.00087533111218 -0.0029320416506 -0.0045759310015 -0.0051785390824
          -0.0044841715135 -0.006952572614 -0.0070208129473 -0.0062637678348 -0.010807209648 -0.0047545223497
          -0.00043672777247 0.0045460732654 0.0026135351509 0.00081622716971 -0.00094652874395 0.0008772884612
          0.0026024263352 -0.00077062501805 -0.0021177097224 -0.0035296909045 -0.003156316001 -0.0021445800085
          -0.061601366848 -0.050869200379 -0.041173607111 -0.035519246012 -0.029281448573 -0.024264913052
          -0.019877176732 -0.015235810541 -0.011908751912 -0.010934671387 -0.018238442019 -0.014500390738
          -0.015973476693 -0.01170487795 -0.017761448398 -0.010580415837 -0.011336986907 -0.010203409009
          -0.0080619454384 -0.0079090828076 -0.0060084420256 -0.0069440766238 -0.0087734721601 -0.010812346824
          -0.013379195705 -0.016271820292 -0.020773269236 -0.027732279152 -0.037929076701 -0.046895142645
          -0.054164201021 -0.045515637845 -0.035977192223 -0.032644513994 -0.033313687891 -0.028047624975
          -0.023220753297 -0.01878509298 -0.015176748857 -0.012184323743 -0.0075681419112 -0.0072910981253
          -0.0094045801088 -0.0091532450169 -0.0079699717462 -0.0070321173407 -0.0065880864859 -0.0060029383749
          -0.008030555211 -0.010598374531 -0.013318167068 -0.016234403476 -0.019799102098 -0.023935789242
          -0.028870560229 -0.026532279328 -0.02136217244 -0.017518930137 -0.013720054179 -0.012270312756
          -0.0099758505821 -0.010023102164 -0.0098559884354 -0.01251124125 -0.015527985059 -0.019228091463
          -0.023428305984 0.045771345496 0.039638474584 0.030291721225 0.019568806514 0.01575271599
          0.012993893586 0.010643657297 0.008727915585 0.00706420606 0.0062576406635 0.010422205552
          0.010415093973 0.011111299507 0.015164004639 0.011646548286 0.013732919469 0.016574310139
          0.021493479609 0.017307972535 0.01722791791 0.010739065707 0.012816410512 0.016238206998
          0.020222337916 0.025065438822 0.029882403091 0.035871572793 0.042865972966 0.050885077566
          0.057121191174 0.052502937615 0.04523281008 0.036213766783 0.027084182948 0.022130863741
          0.018918624148 0.015681261197 0.013068374246 0.011165030301 0.0081764254719 0.0062936493196
          0.0072043775581 0.0069904900156 0.0089202569798 0.0092877047136 0.0075394697487 0.0071400231682
          0.0082207731903 0.012011477724 0.015874583274 0.019588300958 0.024210289121 0.029006958008
          0.033667691052 0.033606287092 0.027762763202 0.021819595248 0.017981920391 0.015171770938
          0.012478947639 0.0093801580369 0.011218909174 0.011188158765 0.012229928747 0.015096838586
          0.019303418696 0.023169014603 -0.015026204288 -0.0020382809453 -0.0038646319881 -0.0097885802388
          -0.0091197062284 -0.011496204883 -0.0096981385723 -0.0091457264498 -0.01063644141 -0.016589980572
          -0.0090699745342 -0.0037586509716 0.0057461401448 -0.00017029991432 0.01108600013 0.015057377517
          0.01159368176 0.010729609989 0.0085629466921 0.0095411958173 0.010885385796 0.002778142225
          0.0031018336304 0.0042507313192 0.014228654094 -0.0032472901512 0.005993776489 -0.0016976451734
          0.00092523457715 -0.004148662556 -0.0035186770838 -0.0031104281079 -0.0047853025608 0.006674379576
          0.0012976636644 0.0050471993163 0.0025280700065 0.0021562126931 0.0033311455045 -0.040911950171
          -0.04686222598 -0.055004376918 -0.034135639668 -0.028815301135 -0.046322721988 0.0029260157607
          0.00026505271671 0.00016574395704 0.00064804317662 0.0013013717253 0.00033097105916 0.00035040476359
          9.062699246e-05 0.00077179510845 0.0396624282 0.038031741977 0.024155864492 0.026435181499
          0.030638219789 0.032758653164 0.036758825183 0.038609318435 0.038506090641 0.024240773171
          0.023340046406 0.022900633514 0.023911416531 0.025111041963 0.018867311999 0.025667687878
          0.029756875709 -0.002413261449 -0.029695181176 -0.026617165655 -0.01499118004 -0.02428640984
          -0.023742960766 -0.024024007842 -0.023734662682 -0.024937568232 -0.019996268675 -0.025376137346
          -0.030378896743 -0.037337206304 -0.03214148432 -0.03802036494 -0.035726379603 -0.045353952795
          -0.039496801794 -0.038001731038 -0.035844001919 -0.036111652851 -0.034069389105 -0.033518388867
          -0.034071922302 -0.035146024078 -0.03716494143 -0.023398324847 -0.028254974633 0.024399109185
          0.02012636885 0.010568100959 -0.0014669430675 -0.011471191421 0.027737649158 0.025941470638
          0.039918277413 0.0358171314 0.033900730312 0.033277101815 0.035343263298 0.033696062863
          0.035625513643 0.027496984228 0.02975278534 0.032830744982 0.034154005349 0.02693053335
          0.025939458981 0.02792137675 0.02881350182 0.02966562286 0.033028241247 0.032876607031
          -0.029093844816 -0.032058484852 -0.031847994775 -0.020138477907 -0.028568152338 -0.026375534013
          -0.028458818793 -0.027563773096 -0.027621237561 -0.03299786523 -0.030113354325 -0.034128904343
          -0.033074781299 -0.031888179481 -0.031965352595 -0.034782893956 -0.032960642129 0.035850644112
          0.032585371286 0.03165320307 0.032909978181 0.028436886147 0.031001754105 0.030243307352
          -0.028924075887 -0.030742196366 -0.031244149432 -0.029320977628 -0.0088908681646 -0.0043641882949
          -0.0087762912735 -0.015955271199 -0.011709621176 -0.011497418396 -0.0042661358602 -0.0016336927656
          0.0013398807496 0.040461018682 0.056429687887 0.053995747119 0.047977037728 0.044723469764
          0.024289354682 0.038731817156 0.032853782177 0.034739695489 0.031483598053 0.028506789356
          0.028655765578 0.041273195297 0.068796589971 0.061813160777 0.061735637486 0.060921534896
          0.063963502645 0.061149951071 0.058743085712 0.00034243706614 -0.00060066126753 0.00031481063343
          -0.065191417933 -0.065192364156 -0.05937300995 -0.061048902571 -0.060586705804 -0.057588145137
          -0.056902904063 0.024045143276 0.009346678853 0.0045226090588 0.009886668995 0.012563462369
          0.0074567114934 0.012627067976 -0.037507131696 -0.053364861757 -0.042771473527 -0.050513487309
          -0.055699493736 0.00048222474288 0.001213765936 0.0017668749206 -3.5287841456e-05 4.9856509577e-05
          -4.4816191803e-05 -1.7616497644e-05 -4.8583110583e-06 2.4254602522e-06 8.9879731604e-06 0.037458389997
          0.029129657894 0.039696659893 0.051741216332 0.039295289665 0.052744377404 0.037955276668
          -0.022922426462 -0.0008431187598 0.010841354728 0.018643172458 0.0096763605252 -0.0009853055235
          -0.00055372942006 -0.00069785502274 0.0048205968924 -0.010630058125 -0.021130327135 -0.015665160492
          0.0058544832282 -0.048876397312 -0.048162113875 -0.059181153774 -0.0512384139 -0.051402386278
          -0.036131154746 0.0382886976 0.010344809853 -0.025792177767 0.046374082565 0.050956040621
          0.055339753628 0.048267748207 0.047491338104 -0.0097491182387 0.018602374941 -0.029444884509
          -0.035341408104 -0.0089993225411 0.0058320844546 0.02834639512 0.034218091518 0.032159660012
          -0.0014218348078 0.0095277614892 0.01972617209 0.027266232297 -0.0055850329809 -0.0052489624359
          -0.00091323634842 0.0028452042025 -0.035978291184 -0.026249276474 -0.013736844063 -0.023671573028
          -0.039150144905 -0.045705694705 -0.040762901306 0.028308410197 0.0071940277703 0.039881408215
          0.041116572917 0.042318738997 0.031503628939 -0.017893439159 0.010106662288 0.037037476897
          0.0001587014267 0.00058641377836 -5.8298475778e-05 -1.7127587853e-05 -1.0485990742e-06 -5.763964964e-06
          1.9885786969e-05 2.7369576401e-06 0.00012871719082 0.0008376390324 0.0021024141461 0.0024134742562
          0.00033158448059 0.0005816865596 0.00019283464644 -0.0015564864734 -1.3100643628e-05 1.2930328921e-05
          -6.9188856287e-05 -0.00046213914175 -0.0019200004172 -0.0015560786705 0.00022434630955 0.00028139023925
          0.00033830155735 0.0012992497068 -0.00029603936127 0.00038182747085 0.00024840678088 0.00071093067527
          0.00030192785198 -0.00024354615016 -4.8217309086e-05 -0.00038035857142 -0.0027222060598 -0.00018980646564
          -3.387270408e-05 -4.34429694e-06 1.1112983884e-06 9.2217551355e-06 6.547151861e-05 -4.796432404e-05
          -0.00060894992203 -0.00074239546666 -0.0007911027642 -0.0011221767636 -0.00013900730119 5.441351459e-05
          -0.00058120529866 9.5154146038e-06 0.0018419577973 0.00040382609586 7.2883951361e-05 5.07873483e-05
          2.4843639039e-05 4.3341497076e-06 9.0196851943e-07 2.6674575793e-07 2.8855959044e-07 2.4768937124e-07
          4.9109719839e-05 -2.1241685317e-05 3.8520224734e-06 4.988573437e-06 7.6158823504e-05 2.1508116333e-05
          0.00011515682854 -0.00018882378936 9.1073248768e-05 8.5598105215e-05 -1.8797227312e-05 -1.5230545614e-05
          -4.6782438403e-06 -2.3637146285e-07 3.9551989062e-07 3.6324311168e-06 1.3745428987e-05 -1.9807244826e-05
          -0.020041875541 -0.021049797535 -0.035013414919 -0.040280915797 -0.0013025212102 -0.0042178221047
          0.0015141827753 -0.0046192007139 -0.0032904369291 4.4536027417e-05 4.047675975e-05 -6.1274631662e-06
          -2.0371129722e-05 -1.7352350596e-06 7.6074480603e-05 5.8337177506e-06 7.0419168878e-06 8.1273105934e-07
          -1.9731746761e-06 -0.013857117854 -0.0041580256075 -0.020065611228 -0.016203327104 -0.00014311933774
          -0.0074609490111 -0.012240265496 -0.037419673055 -0.04301404953 -0.031371586025 -0.027671243995
          -0.02620431222 -0.030255060643 -0.030460897833 -0.033397816122 -0.03503998369 -0.021778926253
          -0.017749747261 -0.00092284259154 -1.4440824089e-05 -0.00026966200676 -0.0012906587217 -0.0012585835066
          -0.0042429761961 -0.00025326287141 -0.00099587778095 -6.4513093093e-05 -0.00013548540301 -0.00015874709061
          -0.00015894279932 -0.00030311488081 0.0095736971125 -0.014311427251 0.012851881795 0.001413831953
          0.034404154867 -0.050103455782 0.00024902960286 -0.0022340712603 0.0019546106923 0.03127052635
          0.0053938436322 -0.027937058359 -0.023208808154 0.0023823657539 0.00090576073853 -0.052575621754
          -0.056843694299 0.024747971445 0.025729773566 -0.00012204644736 -3.7047262595e-05 -0.042596019804
          -0.0030485317111 0.0091249467805 0.011418718845 0.018546164036 -0.01808315888 -0.03879384324
          0.019241599366 -0.0093997549266 0.037087511271 0.014671426266 -0.013653078116 0.00013378061703
          0.00071430840762 0.0045179161243 0.01106722746 0.010114700533 0.0087637072429 -0.0086385766044
          -0.0095800999552 -0.0095825241879 -0.012528961524 -0.0066780853085 -0.0020257704891 0.010797776282
          0.0058899042197 0.0045021795668 0.0028005659115 -0.005490008276 -0.0063272472471 -0.0053203538992
          -0.0059917042963 -5.7176148403e-06 0.0030222907662 -0.0023088960443 -0.0029456994962 4.3441563321e-05
          -0.041746512055 -0.039950821549 -0.037007264793 -0.030047919601 -0.019672684371 -0.018151117489
          -0.02008237876 -0.022613065317 -0.032895661891 -0.039730235934 -0.032868456095 -0.027301248163
          -0.024767898023 -0.016839021817 -0.010856855661 -0.017120458186 -0.03519128263 -0.024490695447
          -0.019347190857 -0.01924905926 -0.021480096504 -0.03015277721 -0.01905056648 -0.023793594912
          -0.024414502084 0.0107210977 0.04133316502 0.035516697913 0.025707464665 0.01999418065
          0.018705802038 0.012983866967 0.010256747715 0.03015174903 0.033630035818 0.041843455285
          0.023388952017 0.036609042436 0.025486713275 0.021532708779 0.020212261006 0.017144061625
          0.026658069342 0.020241675898 0.021009331569 0.029591524974 0.030984323472 0.0256793648
          0.023501543328 0.022313762456 0.020873911679 -0.019009115174 -0.0020801085047 0.0034128285479
          -0.016247153282 -0.0051861181855 -0.037201412022 -0.02665210329 -0.0028035643045 -0.034799940884
          0.037035871297 -0.022680085152 0.016181206331 -0.036151170731 0.027555655688 0.026366289705
          0.018558787182 -0.021741399541 0.00029690176598 -0.0016427786322 0.036584135145 0.039777096361
          0.01442924235 -0.027742829174 -0.033726383001 0.00043385638855 0.00022157466447 -0.040443271399
          0.0106750587 0.010169373825 0.035375084728 0.029305832461 0.0011938801035 -0.046330500394
          -0.046567894518 0.042156755924 0.027130426839 0.0094711482525 0.0052071721293 -0.016860798001
          -0.036355856806 -0.0054349000566 0.032689735293 0.00059564778348 -0.0024126253556 -0.016596578062
          -0.007601919584 -0.039089422673 -0.017731597647 -0.024113709107 -0.000246393407 0.0030219824985
          0.0016297918046 -0.0012524423655 -4.3315143557e-05 0.006672357209 -0.037953749299 0.0093433102593
          0.022293254733 0.010133332573 -0.00027687867987 -0.014097317122 -0.028418174013 -0.028086641803
          -0.022468790412 0.028317272663 -0.0028307938483 0.0002868786105 0.0076360343955 -0.026736108586
          -0.037148118019 -0.034818906337 0.037410300225 -0.0033103588503 0.0142306583 0.011745873839
          0.0079546673223 -0.0012984866044 -0.009715939872 -0.013978399336 0.020528361201 -0.036341238767
          0.0012236092007 -0.046250294894 0.040507148951 -0.04511506483 0.00010688632756 -0.009295925498
          -0.010298664682 0.0028531819116 -0.000542834925 -0.0080610783771 -0.014144768938 -0.015083623119
          -0.022741880268 0.012169839814 0.01694040373 0.02417188324 0.0028639603406 -0.0012431339128
          0.010836740956 -0.00068734725937 0.037868998945 0.026555987075 -0.040531359613 -0.030002307147
          -1.9990555302e-05 -0.0067280000076 0.0094549832866 0.0044578826055 0.01613778621 -0.045953281224
          -0.031274989247 0.019654946402 0.023730956018 0.0094746649265 0.021149471402 -0.010874669068
          0.0093492595479 0.0060096625239 0.028561526909 -0.014582516626 0.029720066115 -0.019660076126
          -0.00039878496318 0.043892104179 -0.034301243722 0.0023108895402 0.0015211516293 -0.0038248931523
          -0.035430591553 -0.062161102891 0.059742491692 -0.048559211195 -0.048559211195 -0.023734826595
          0.022574778646 0.026576455683 0.023738440126 0.019142515957 0.016429252923 0.014516266063
          0.012580890208 0.010456494056 0.0077150962315 0.0047480030917 0.0090480707586 0.013702589087
          0.0073074731044 0.0071258032694 0.0045189796947 0.0025077215396 0.00079883722356 -0.00095714558847
          -0.0032752819825 -0.0046370145865 -0.0068524926901 -0.0074100396596 -0.014434083365 -0.0093894945458
          -0.0050255320966 -0.0076398658566 -0.010789417662 -0.013040330261 -0.015151561238 -0.016876885667
          -0.019046390429 -0.023123450577 -0.024672124535 0.034131031483 -0.010128306225 -0.0053949765861
          -0.0053949765861 -0.049006108195 -0.075780153275 -0.062227189541 -0.045907188207 -0.037262290716
          -0.031606893986 -0.02778724581 -0.023534473032 -0.019277673215 -0.014286651276 -0.011274618097
          -0.017176996917 -0.027659226209 -0.023193046451 -0.016936354339 -0.016161255538 -0.014336714521
          -0.017180683091 -0.016642380506 -0.01434170641 -0.013508946635 -0.01230189763 -0.0086091738194
          -0.0075252321549 -0.0049012876116 -0.0091450847685 -0.0066349478438 -0.006438577082 -0.0085802935064
          -0.010695119388 -0.012913701124 -0.01479822956 -0.017961151898 -0.021302476525 -0.039681382477
          -0.074003316462 -0.065623663366 0.049318511039 0.049318511039 0.073641546071 0.060824733227
          0.034618843347 0.021191623062 0.017672685906 0.015200442635 0.012856722809 0.0108565595
          0.0087425541133 0.0060288794339 0.0066859312356 0.0086655579507 0.0063489470631 0.0086790928617
          0.010853802785 0.011587761343 0.012983700261 0.015113916248 0.014598354697 0.017677826807
          0.017866211012 0.017395773903 0.018487513065 0.015111285262 0.018303509802 0.018779624254
          0.011386586353 0.014486449771 0.019018687308 0.023594286293 0.027610290796 0.031890623271
          0.037220790982 0.04582497105 0.061633385718 0.04037861526 0.084204010665 -0.044862832874
          -0.044862832874 0.044155664742 0.010644092225 0.008281134069 -0.050163961947 -0.050163961947
          -0.00096331682289 -0.0551578179 0.00061772699701 -0.017161026597 -0.00028714476503 -0.018448401242
          -0.017427915707 -0.016414796934 -0.015876116231 -0.016574021429 -0.01834512502 -0.036678150296
          -0.027415044606 -0.014661074616 -0.008748321794 -0.0067847943865 -0.0035974632483 -0.00079897482647
          0.0019472528948 0.003828952089 0.005067975726 0.010387420654 0.017233124003 0.028024906293
          0.029709115624 0.019303070381 0.017372442409 0.016624748707 0.016341272742 0.01689216122
          0.018594292924 -0.020267179236 0.020905049518 -0.00098748225719 0.054499004036 0.018499290571
          -0.034158863127 -0.015241608024 0.015099721029 0.034330621362 0.00012844929006 0.0012947460636
          0.0038074699696 -2.5921041015e-05 -3.9501734136e-05 -1.1574432392e-05 -2.3858731311e-06 -1.1796601029e-06
          -3.5007096812e-06 -1.5540668755e-05 -6.4059029683e-05 7.0249975579e-06 0.0039485390298 0.0063016186468
          0.00085926876636 0.0034015693236 8.2497826952e-06 -2.5771614673e-05 -7.6681308201e-06 -5.6889399502e-07
          -5.5829506351e-08 -2.4778497476e-08 -8.4311568571e-07 -2.1195856181e-09 3.8438294325e-08 2.4726705306e-07
          -2.5836945952e-06 2.2026715669e-06 0.00063396053156 0.00081428250996 0.0010165622225 0.0010975977639
          1.8497752535e-05 0.001098318724 0.0011453661136 -1.3031833987e-05 0.0011812867597 -9.7084766821e-06
          -2.02802903e-06 -1.7563630195e-07 1.1579755821e-08 4.5974504204e-09 4.7862886277e-07 4.5426404305e-10
          3.4623462852e-06 1.6441761545e-05 9.8933385743e-05 0.0004644242872 -2.1078392365e-06 -1.833940405e-05
          1.9057531972e-05 2.655397293e-05 3.2752457628e-05 6.3063562266e-05 -0.030536388978 -0.056650958955
          -0.056659623981 -0.030954565853 -0.040616437793 -0.036975868046 -0.033164370805 -0.075278542936
          0.0040853223763 0.0011218726868 -3.4588065319e-05 -2.5157150958e-05 -3.6596309201e-06 -7.9077250348e-07
          -4.3585023377e-06 -3.3161457395e-05 7.1249785833e-05 0.00069150741911 -0.0094911800697 0.00094073096989
          1.6917085304e-05 -1.3587212379e-05 -1.5503287614e-06 -1.021730256e-07 -8.3250462524e-08 -3.9920671213e-09
          1.6748067821e-08 2.377823165e-07 1.032237833e-06 1.3600147213e-05 3.9682745978e-08 0.0010916002793
          0.00097207678482 1.3336014035e-06 0.001307934639 5.631824024e-06 7.4704266808e-06 0.0014927760931
          1.0893205626e-06 0.00012117008009 1.7755644876e-05 3.5982955069e-06 7.9756263816e-09 2.7478519016e-08
          -4.6411382755e-06 1.5840180367e-07 -1.0528495977e-06 0.00037049344974 -1.2893133317e-05 2.5670806281e-05
          -1.3439883332e-05 0.05323054269 0.05323054269 0.044891536236 0.044891536236 0.016889834777
          -0.0071483352222 0.019888447598 0.019306011498 0.018616106361 0.018076770008 0.018347837031