<?xml version="1.0"?>
<VTKFile type="UnstructuredGrid" version="0.1" byte_order="LittleEndian" header_type="UInt32" compressor="vtkZLibDataCompressor">
  <UnstructuredGrid>
    <Piece NumberOfPoints="24911" NumberOfCells="12930">
      <PointData Scalars="Spannung:Scherdehnung ZX">
        <DataArray type="Float32" Name="Spannung:Scherdehnung ZX" format="ascii" RangeMin="-1.2016566992" RangeMax="0.57197362185">
          0.14025959373 0.14025959373 0.27874153852 0.20306006074 0.18768325448 0.18768325448
          0.21477770805 -0.1820949167 -0.43654876947 -0.00092208426213 -0.0010969551513 -0.4402834475
          -0.16126310825 0.29893144965 0.066746510565 0.058166477829 0.058166477829 0.015979934484
          0.1968268007 -0.2138658762 -0.23309950531 -0.28713735938 -0.2907371223 -0.21918228269
          -0.21686950326 0.20207160711 0.055952623487 0.055952623487 -0.0084867719561 -0.098606474698
          0.0039258333854 0.012876962312 0.37783023715 0.046243958175 -0.00029059653752 0.0011560816783
          0.36606529355 0.002729879925 0.030162908137 0.3987929821 0.0011304033687 -0.00018473358068
          -1.3629679415e-05 -9.0080917289e-05 -0.10598775744 0.00035799379111 -0.00043478998123 0.21681454778
          -0.016687333584 -0.0002256847074 0.00063850311562 0.43391758204 -0.029586080462 0.19432942569
          0.43611097336 0.00061809067847 -0.00026311632246 -0.10507663339 -7.0133348345e-05 7.9768933574e-06
          -0.00052294437774 0.00025395859848 0.093674004078 -0.45163905621 -0.81078243256 -0.46062266827
          0.33513590693 0.33676761389 0.085370734334 -0.21712017059 -0.19345670938 -0.21517573297
          -0.2335947305 -0.25688433647 -0.32969874144 -0.34050297737 -0.36728283763 -0.3735383451
          -0.35230639577 -0.34942254424 -0.33092010021 -0.25344720483 -0.23940064013 -0.21213942766
          -0.19339264929 -0.25003689528 0.096141323447 0.40345168114 0.38735297322 -0.19073577225
          -0.39630413055 0.049153309315 0.0049367332831 0.0094504849985 0.012588402256 0.017950335518
          0.049848619848 -0.23270241916 -0.37489596009 0.31385341287 0.13115431368 0.010086929426
          0.18048757315 0.19763369858 0.21950776875 0.23233234882 0.036149665713 0.10637921095
          0.31504929066 0.22793920338 0.22171276808 0.19873279333 0.17975892127 0.35400545597
          0.28373596072 0.23912002146 0.18952681124 0.13578243554 0.079766333103 0.0059999581426
          0.0080948928371 0.074446819723 0.14020858705 0.16744047403 0.21862141788 0.26217451692
          0.30990254879 0.10864733905 -0.031096484512 -0.15370619297 0.11508946866 0.18585322797
          -0.5662522316 -0.51996165514 -0.51782792807 -0.59071075916 -0.0086404159665 0.0089262034744
          -0.0060538696125 0.022655948997 0.050218753517 0.0049781240523 0.0058514978737 0.0023557986133
          -0.0068358285353 0.048807296902 0.22352920473 0.37991273403 0.38099578023 0.23248998821
          0.23917490244 0.24127005041 0.25384303927 0.24087107182 0.017934715375 0.012174346484
          0.014582583681 0.0046339388937 0.00054080941482 -0.055339843035 -0.18753959239 -0.1117779389
          -0.030064264312 -0.21609155834 -0.2284206301 -0.22997179627 -0.24625241756 -0.2893383503
          -0.29129311442 -0.27479735017 -0.30015838146 -0.30440548062 -0.29393646121 -0.27647608519
          -0.24217875302 -0.23128190637 -0.22074863315 -0.2077690661 -0.12033312023 -0.1737973094
          -0.058121550828 -0.059049829841 -0.016946995631 -0.037315815687 -0.030095050111 -0.010580412112
          -0.016750872135 -0.050678674132 -0.20571130514 -0.16156886518 -0.12127121538 -0.091209761798
          -0.07233633101 -0.22783043981 -0.24239182472 -0.25635713339 -0.23647749424 -0.26016971469
          -0.25707748532 -0.26087501645 -0.24044325948 -0.24236665666 -0.066911697388 -0.065601177514
          -0.034217342734 -0.4983265996 -0.39647322893 0.283115834 0.29448536038 0.30755513906
          0.29528078437 0.29999437928 0.30705046654 0.33829152584 0.32926148176 -0.49808084965
          -0.39761778712 0.20809717476 0.084864877164 0.21050983667 0.12196562439 0.012821527198
          0.031027562916 0.039258435369 0.042980153114 0.05823777616 0.052484489977 0.053906712681
          0.046162568033 0.073229320347 0.059762060642 0.053902551532 0.033715099096 0.26142650843
          0.20427273214 0.16915409267 0.14939704537 0.112820521 0.073425143957 0.20194296539
          0.17438901961 0.15981350839 0.15569581091 0.14522176981 0.033022806048 0.1161480099
          0.10658447444 0.05047396943 0.10264281929 0.13987442851 0.16408225894 0.13692612946
          0.17404747009 0.19227701426 0.27680805326 0.041847869754 0.092060655355 0.1246913299
          0.14850004017 0.16755962372 0.20791095495 0.057746198028 0.061067748815 0.043612260371
          0.064274303615 0.042236093432 0.059127435088 0.0092912707478 0.028149731457 0.032601516694
          0.022237323225 0.058782216161 0.072656475008 0.04455769062 0.07258041203 0.073249474168
          0.08003950119 0.077970504761 0.083625175059 0.076449610293 0.10366638005 0.076773747802
          0.10137600452 0.089162312448 0.16477748752 0.12835887074 0.16906477511 0.13420626521
          0.14095266163 0.11103335023 0.11640981585 0.10547464341 0.08677033335 0.07354132086
          0.0650087744 0.08310739696 0.11423205584 0.15178577602 0.12132247537 0.10186758637
          0.16992165148 0.16404311359 0.082429669797 0.098741441965 0.13293096423 0.079799056053
          0.10452761501 0.051535114646 0.092709206045 0.11167374253 0.14532423019 -0.22680202127
          -0.16484922171 -0.10869777948 -0.054670605808 -0.0026128154714 -0.022356502712 -0.045737784356
          -0.025571547449 -0.014818919823 -0.0099387653172 -0.0055437376723 0.0025426214561 -0.036809667945
          -0.019255338237 -0.015984056517 -0.0094417929649 -0.0034686832223 -0.0017189994687 -0.0011190536898
          -0.093654602766 -0.0378315337 -0.02218683809 -0.013596456498 -0.0078885369003 -0.0047419769689
          -0.0029332300182 0.13775762916 0.056807771325 0.037875648588 0.022698262706 0.010973301716
          0.0065862587653 0.0038687561173 0.0041070813313 0.0066905962303 0.012148107402 0.022460890934
          0.037339042872 0.057338695973 0.13649517298 -0.0011154760141 -0.0019277507672 -0.0037258586381
          -0.0086305039003 -0.014435247518 -0.019556175917 -0.040805172175 -0.0029498580843 -0.0049016675912
          -0.0081352749839 -0.013413536362 -0.023468703032 -0.038423158228 -0.091741032898 -0.0014357233886
          -0.24246755242 -0.21419917047 -0.10797772557 -0.10074932128 -0.15511928499 -0.19763064384
          -0.19802099466 0.12781280279 0.11551220715 0.2081259042 0.0045652394183 -0.00077125674579
          -0.0073749381118 -0.0072854086757 -0.0076162316836 -0.0038836176973 0.00035254418617 0.0047300034203
          0.0013678936521 -0.0001098261273 0.00029617568362 -0.0010118890787 0.31004077196 0.23344802856
          0.17135792971 0.11327423155 0.065251864493 0.0047411606647 0.025236167014 0.038183458149
          0.024878555909 0.015309829265 0.0096139609814 0.0064495760016 0.23715810478 0.24273605645
          0.07230463624 0.052726332098 0.16896601021 0.20659026504 0.17433132231 0.21590608358
          0.22182834148 0.21061357856 0.17927499115 -0.0072008147836 -0.0056031858549 -0.00010186751751
          0.0091780563816 0.010258120485 0.000599408173 0.0065263300203 0.00090366811492 -0.003888346022
          -1.7901264073e-05 1.6266636521e-05 0.00098698516376 -0.0012995430734 -0.0014596872497 -0.0014366327086
          -0.0011612640228 -0.0015954937553 -0.0018064366886 -0.0015087298816 -0.0017014849 -0.0016190748429
          -0.0018790977774 -0.0017525751609 -0.001526038046 -0.0016810325906 -0.0018671083963 -0.0019377332646
          -0.0017458397197 -0.0015703220852 -0.0017936925869 -0.001855157665 -0.0015225264942 -0.0016383560142
          -0.0016310671344 -0.0016815545969 -0.0017781496281 -0.0015077375574 -0.0015481422888 -0.0016773130046
          -0.0015299275983 -0.0015496267006 -0.0013815403217 -0.0015934439143 -0.0017193281092 -0.0015471950173
          -0.0013632837217 -0.0015706211561 -0.0012493331451 -0.0014657839201 -0.0017038279912 -0.0014789211564
          -0.001616045367 -0.0016205289867 -0.0014819278149 -0.0016434841091 -0.0017545289593 -0.0016453254502
          -0.0015363107668 -0.001612250926 -0.0016639356036 -0.0015583409695 -0.0016298509436 -0.0016300253337
          -0.0018448811024 -0.0018085207557 -0.001948517398 -0.0018582410412 -0.0014785218518 -0.0016156990314
          -0.0016977640335 -0.0015184385702 -0.0015033207601 -0.0015205884119 -0.0016952133738 -0.0015522961039
          -0.001555933035 -0.0018310376909 -0.0017745528603 -0.0014213136164 -0.0012783252168 -0.0013869281393
          -0.0012482713209 -0.001453642617 -0.0012906128541 -0.0014860278461 -0.0016360136215 -0.0014098627726
          -0.0016268201871 -0.0014930645702 -0.0014367649565 -0.0013958497439 0.0054896739312 0.0010339849396
          0.001364756492 0.0014463064726 0.0014485075371 0.0016194283962 0.0012952645775 0.0012003771262
          0.0014832292218 0.0013594222255 0.0010286285542 0.0011186823249 0.0012052687816 0.0013249383774
          0.0012006667675 0.0011652160902 0.0013296108227 0.0012097615981 0.0013730599312 0.001338532893
          0.0012463070452 0.0011454379419 0.0012471339433 0.0011892123148 0.0011723794742 0.0010907193646
          0.0010719217826 0.001054733526 0.0010762760649 0.00098083622288 0.0010960083455 0.0010984922992
          0.0009405852179 0.0010005042423 0.0009298833902 0.00081362924539 0.00075775000732 0.00085460260743
          0.001014146721 0.00095261295792 0.00086590874707 0.00079379143426 0.00087089661974 0.00084739981685
          0.00075752538396 0.0008046477451 0.00084277306451 0.00079223501962 0.00065326230833 0.00067160575418
          0.00067740678787 0.00065587612335 0.00054262386402 0.00061332958285 0.00058397895191 0.00047599867685
          0.00050296983682 0.0004885311937 0.00056058104383 0.000471908279 0.00040039175656 0.00038577165105
          0.00044319123845 0.00040906557115 0.00034358468838 0.00036472000647 0.00034267903538 0.00031131645665
          0.0002629130322 0.00019079040794 0.0002369913127 0.00023994118965 0.00017874473997 0.00017624112661
          0.0002066478919 0.00012403847359 0.00019069381233 0.00010572819883 0.00011358419579 0.00060641061282
          0.0061823404394 0.0092104878277 0.01453799475 0.024246618152 0.038708928972 0.022169159725
          0.006185316015 0.065442793071 0.11460524052 0.16962942481 0.20172047615 0.24030178785
          0.29192432761 0.00047768192599 6.7178079917e-05 0.00017004361143 0.00011843319953 0.00018082049792
          0.00025199423544 0.00022736557003 0.00018942961469 0.00021741395176 0.00024532378302 0.00026450358564
          0.00030875569792 0.00031971832504 0.00030497607077 0.00029679114232 0.00038048980059 0.00039691413986
          0.00048196307034 0.0004691737995 0.000430818327 0.00046881299932 0.00055053085089 0.00056365277851
          0.00054236187134 0.000570394448 0.00062075065216 0.00061274674954 0.00064002134604 0.00059411989059
          0.00067439570557 0.00076626421651 0.00071113766171 0.00073151302058 0.0007336428389 0.0006119828904
          0.00071390875382 0.00076196802547 0.00079253222793 0.00070054386742 0.00076700060163 0.00086407625349
          0.00096287479391 0.0010404736968 0.00072010100121 0.00095536489971 0.00094688445097 0.00070478889393
          0.00086647539865 0.001024547033 0.0010779438308 0.00088150205556 0.0009077815921 0.0010795645649
          0.0012959465384 0.0012987849768 0.0012340900721 0.0010926817777 0.0012544756755 0.0013438531896
          0.0013053575531 0.0011325427331 0.001211047289 0.0011763153598 0.0011266625952 0.0013447618112
          0.001531542046 0.0010997117497 0.0011173640378 0.0011670938693 0.001233074232 0.0016126760747
          0.0014657274587 0.0014314929722 0.0014547258615 0.001261834288 0.0014743317151 0.0013977428898
          0.0011827257695 0.00085908471374 -0.00076854677172 -0.00084620132111 -0.0010175496573 -0.0011072559282
          -0.00081573345233 -0.0010347712087 -0.0010061548091 -0.00068458192982 -0.00072072993498 -0.00051975128008
          -0.00086389004719 -0.00063802016666 -0.00073850946501 -0.00099614402279 -0.0011976659298 -0.0010498985648
          -0.0010153184412 -0.0011438907823 -0.00099118729122 -0.00097436294891 -0.00086199742509 -0.0010883549694
          -0.0010701220017 -0.00095600920031 -0.0011932055932 -0.0013649325119 -0.0012041652808 -0.0012886880431
          -0.0010877165478 -0.0010424748762 -0.00098066567443 -0.0010743188905 -0.0010824964847 -0.00097667577211
          -0.00098130223341 -0.0010871823179 -0.0011151070939 -0.0009058623109 -0.0010328522185 -0.00110216951
          -0.00081697531277 -0.0011754912557 -0.00094894703943 -0.0004601906403 -0.0009880377911 -0.00080688105663
          -0.00095129996771 -0.0011750701815 -0.0011132884538 -0.00077288597822 -0.00095482147299 -0.0010535464389
          -0.0010780583834 -0.0010779201984 -0.00089942693012 -0.0012133477721 -0.0011471998878 -0.0010139138903
          -0.0011318641482 -0.00094289547997 -0.0011984126177 -0.001342046191 -0.00094286730746 -0.0011142984731
          -0.001342290896 -0.0013252678327 -0.0010300694266 -0.00094037788222 -0.0011448167497 -0.0013914684532
          -0.00099210324697 -0.001092490973 -0.0010018149624 -0.0011968984036 -0.0011973830406 -0.00035793022835
          -0.00096347543877 -0.00088800460799 -0.00087525951676 0.00063653493999 0.00077711249469 0.00097044894937
          0.00099428079557 0.00069360510679 0.00089464581106 0.00099403003696 0.00090179615654 0.0011166136246
          0.00064104353078 0.00065355177503 0.00061565637589 0.0004496545298 0.0010394589044 0.00072915432975
          0.00075271731475 0.00067515467526 0.00083195383195 0.00070260255598 0.000884825713 0.00088831264293
          0.00090151879704 0.00062921294011 0.00084488966968 0.00086983735673 0.00088701047935 0.00073562678881
          0.00053380348254 0.0004545810807 0.00074802199379 0.0007023147773 0.00056408927776 0.0002249693207
          0.00064471573569 0.00062013004208 0.00035413916339 0.00071488582762 0.00068091938738 0.00054013187764
          0.00052623607917 0.0003655187611 0.00053175602807 0.00049196754117 0.00046427096822 0.00023755431175
          0.00044293623068 0.00049514026614 0.00046998835751 0.00052619416965 0.00046212907182 0.00036010652548
          0.00044821266783 0.00038191917702 0.00038573381607 0.0003840464924 0.00035134874634 0.00036186425132
          0.00039537306293 0.00028670686879 0.00026518508093 0.00032530922908 0.0003545046784 0.00022683832503
          0.00021205430676 0.00017671383102 0.00018335123605 0.00021038269915 0.00021608779207 0.00016582994431
          0.0001501396182 0.00012632376456 0.00011808281852 0.00015570268442 0.00019089644775 0.0001024000303
          5.6981949456e-05 3.8021131331e-05 -0.00013282855798 0.00023480469827 0.00011755451851 -3.6961644128e-06
          2.5180629564e-06 0.00015978862939 3.3976222767e-05 0.00015625618107 0.0001078200803 9.1248330136e-05
          0.00020205664623 0.00016915283049 7.9329787695e-05 0.00016508653061 0.00019192352192 0.00024098348513
          0.00027381823747 0.00020140103879 0.00028435239801 0.00037657568464 0.00024527459755 0.00024308248248
          0.00029687894857 0.00040750275366 0.00030553809484 0.00036481738789 0.0002471570042 0.00036688972614
          0.00047565618297 0.00031478804885 0.0003985176445 0.00047826967784 0.00042814537301 0.00037281829282
          0.00050321203889 0.0006260064547 0.00051575317048 0.00046097335871 0.00056349614169 0.00069122860441
          0.00049337826204 0.00058765208814 0.00063638639404 0.00079500145512 0.00059179338859 0.00040694861673
          0.00046811270295 0.00058034784161 0.0007057391922 0.00056064600358 0.00073672569124 0.00083739054389
          0.0006403150619 0.00068214093335 0.00075790449046 0.00068316207035 0.00069765246008 0.00075111974729
          0.00084428605624 0.00088344782125 0.00072773348074 0.00085667258827 0.00089958112221 0.0010151135502
          0.00078650709474 0.0008992664516 0.00079570896924 0.00075607898179 0.0009071501554 0.00081516936189
          0.00065047550015 0.00042545719771 0.0008864600095 0.001009259955 0.00059526320547 0.00072968093446
          0.001149882446 0.00096546678105 0.00096370012034 0.0009175799205 0.00076836941298 0.0003424390743
          0.00041785082431 0.00042731571011 0.00046709852177 0.00052792357747 0.00038252750528 0.0005148210912
          0.00051163346507 0.00037439487642 0.00039720087079 0.0003229752474 0.00046218093485 0.00036694912706
          0.00041151643381 0.00047021216596 0.00058041338343 0.00046904874034 0.00051653664559 0.00054006982828
          0.00045867633889 0.00046651533921 0.00045979389688 0.00052643282106 0.00051326234825 0.00040808762424
          0.00056274287635 0.0006180893397 0.00051966618048 0.00060003140243 0.00045433171908 0.00048293155851
          0.0004609056341 0.0005080269766 0.00051835586783 0.00046972685959 0.00050175492652 0.00050826236838
          0.00054018013179 0.00040913082194 0.00052755040815 0.0005417871289 0.00046135479352 0.00056327664061
          0.00048992712982 0.00037267518928 0.00054063060088 0.00042139788275 0.00047647877363 0.00051411264576
          0.0005554803065 0.00039456528611 0.00051856116625 0.00048219671589 0.00057094485965 0.00047980519594
          0.00045169368968 0.00060008635046 0.00049802009016 0.00048198914737 0.00053496711189 0.00040083602653
          0.00059617636725 0.00060174486134 0.00044688986964 0.00057601172011 0.00057720899349 0.00050094421022
          0.00047814825666 0.00044691123185 0.00054631999228 0.00062550022267 0.00045907974709 0.00055275892373
          0.00038698397111 0.00058137415908 0.00060032564215 0.00027001168928 0.00052195502212 0.0004156154173
          -0.00034825660987 -0.00039396577631 -0.00036991701927 -0.00048069504555 -0.00049357826356 -0.00034558598418
          -0.00045574150863 -0.00046791750356 -0.00042804365512 -0.00051650637761 -0.00032409929554 -0.00033499291749
          -0.00031118787592 -0.00021906278562 -0.00044131308096 -0.00036579350126 -0.00032663738239 -0.00036364374682
          -0.00038850872079 -0.00030725562829 -0.00038684278843 -0.00044285078184 -0.00042271689745 -0.0002854563354
          -0.00035864673555 -0.00043945584912 -0.00040840078145 -0.00037735348451 -0.00027069420321 -0.00023037442588
          -0.00034163560485 -0.00031738480902 -0.00032361253398 -0.00016495112504 -0.00031750419294 -0.00028494591243
          -0.00015857128892 -0.00033706825343 -0.00030094810063 -0.0002519817499 -0.00026822960353 -0.0001771133393
          -0.00022649872699 -0.00023039136431 -0.00025687311427 -0.00012579062604 -0.00021517045388 -0.00026316690492
          -0.00016353520914 -0.0002506179153 -0.00022636339418 -0.00016470527044 -0.00020709013916 -0.00018980754248
          -0.00017456294154 -0.0001853753929 -0.00015902411542 -0.00018831143097 -0.00020229311485 -0.00013652592315
          -0.00012324751879 -0.00014413923782 -0.00018425838789 -0.0001011075874 -0.00012376472296 -8.7499269284e-05
          -7.7474578575e-05 -8.2814825873e-05 -0.00011051481852 -7.7604512626e-05 -8.1386519014e-05 -7.004874351e-05
          -3.5110286262e-05 -5.4323147197e-05 -6.4489118813e-05 -4.8705129302e-05 -1.3427585145e-05 -5.0710135838e-05
          4.3630854634e-05 2.0208072726e-07 -1.6617588699e-05 -3.3767853893e-05 -2.8887002372e-06 -3.6034532968e-05
          -1.333957789e-05 -4.5556986151e-05 -6.715793279e-05 -6.5696818638e-05 -5.6395983847e-05 -7.7291122579e-05
          -7.2492599429e-05 -7.8225901234e-05 -0.00011060667021 -7.74977525e-05 -0.0001107498756 -0.00011046566942
          -0.00011881317914 -0.00014704727801 -0.0001181241023 -0.00013023895735 -0.00013747351477 -0.0001753399556
          -0.00014464242849 -0.00015961646568 -0.00015314636403 -0.00017889268929 -0.00021369442402 -0.00017111237685
          -0.00021092350653 -0.00016907982354 -0.00019411087851 -0.00020504192798 -0.0002161750308 -0.00017789135745
          -0.00024580897298 -0.00020540197147 -0.00025775216636 -0.00029717711732 -0.00024478012347 -0.00026254350087
          -0.00033922694274 -0.00035767158261 -0.00025153852766 -0.00023711586255 -0.00024849010515 -0.00028765815659
          -0.00031053312705 -0.00026615444222 -0.00033009427716 -0.00036224236828 -0.00029758733581 -0.0003256224154
          -0.00035383104114 -0.00033263809746 -0.00033536128467 -0.00036307799746 -0.00038655818207 -0.00038571681944
          -0.00035124711576 -0.0003847523185 -0.00044262723532 -0.00043649287545 -0.00040416169213 -0.00043582287617
          -0.00037726163282 -0.00035873052548 -0.0004186455335 -0.0003753703495 -0.00036676827585 -0.0003052156826
          -0.00045908984612 -0.00032942235703 -0.00047496551997 -0.00038805123768 -0.00035372859566 -0.00060028699227
          -0.00039909637417 -0.00044445981621 -0.03840302676 -0.019043050706 0.2296987623 0.24765707552
          0.066870078444 0.083317667246 0.16605703533 0.16737949848 0.18286274374 0.2090036422
          0.20422801375 0.22789074481 0.2185626477 0.20501437783 -0.00087704544421 -0.00042714367737
          -0.00031103857327 0.0015348956222 0.0057604191825 0.0012438726844 -0.00065894058207 -0.0078457230702
          -0.0062220543623 -0.0073025040329 -0.0069213057868 -0.0064575532451 -0.0086681144312 -0.013654191978
          -0.0019821953028 0.00077609840082 0.0010487975087 0.0084479600191 0.012413828634 0.00095881795278
          0.0018958059372 0.0030083458405 0.0016668069875 0.00015682530648 -0.002198467264 -0.00062488927506
          -0.0047879358754 0.0027212924324 0.0041432874277 -0.0054778708145 -0.0087790852413 -0.014660268091
          -0.025805145502 -0.043941125274 -0.02055622451 -0.001563259284 -0.053717456758 -0.10469332337
          -0.13163280487 -0.15997114778 -0.19270671904 -0.23726269603 -0.28266125917 -0.22664472461
          -0.24252831936 -0.078834608197 -0.073874726892 -0.1111298427 -0.10628082603 -0.15325090289
          -0.18451234698 -0.19584731758 -0.20238353312 -0.22404119372 -0.20869460702 -0.21360059083
          -0.21218417585 -0.18121629953 -0.059279851615 0.071907013655 -0.090973854065 -0.25973778963
          -0.38322088122 -0.56718242168 -0.5225430131 -0.53976964951 -0.49000284076 -0.57006579638
          -0.37848824263 -0.19284310937 -0.077420480549 -0.0062085939571 0.07421579957 -0.021328963339
          -0.30175840855 -0.40261399746 -0.39965558052 -0.33067366481 -0.44166532159 -0.26697769761
          -0.2054515928 -0.15467950702 -0.12662266195 -0.08659760654 -0.063504859805 -0.034129597247
          -0.011876465753 0.0052488320507 -0.0003589373955 -0.018001645803 -0.042458556592 -0.040123254061
          -0.027524994686 -0.016652204096 -0.0097011020407 -0.0051101003774 -0.0072036995552 -0.0090143214911
          -0.007906393148 -0.0086476886645 -0.0089596128091 -0.0089941872284 -0.010002723895 -0.0084436247125
          -0.0078076501377 -0.0088877445087 -0.0078622512519 -0.0084467958659 -0.0080370139331 -0.0068361777812
          -0.011924570426 -0.007820171304 -0.0071176071651 -0.010183100589 -0.010687747039 -0.0080334991217
          -0.010307139717 -0.009467869997 -0.0087147438899 -0.0091383233666 -0.0091982949525 -0.0085208006203
          -0.0086020017043 -0.0081382784992 -0.0095498897135 -0.0078013283201 -0.0086803492159 -0.0089621450752
          -0.00896865502 -0.0086670089513 -0.0081005478278 -0.0096572721377 -0.0079808235168 -0.0087309665978
          -0.0098029319197 -0.0090732425451 -0.0089354459196 -0.008840514347 -0.0074179023504 -0.0099134482443
          -0.010156701319 -0.0072358092293 -0.01054391358 -0.0081086596474 -0.0092136338353 -0.0091394484043
          -0.00910052564 -0.0087487753481 -0.01015201211 -0.0088517880067 -0.0086969770491 -0.0087593747303
          -0.0088300174102 -0.0085593918338 -0.007034374401 -0.0095095206052 -0.0098097510636 -0.0079773403704
          -0.0080875009298 -0.0062851747498 -0.0090339891613 -0.0093088168651 -0.0087802531198 -0.012898440473
          -0.0092917932197 -0.013561820611 -0.008925053291 -0.0087350932881 -0.0083207478747 -0.0086522148922
          -0.0096936058253 -0.010652878322 -0.0080930357799 -0.011923175305 -0.0080986963585 -0.008543648757
          -0.008394905366 -0.0057850359008 -0.0091177029535 -0.014902969822 -0.024454876781 -0.039808813483
          -0.045717071742 -0.018743148074 -0.0065107727423 0.0067610181868 -0.01383114513 -0.031830389053
          -0.063202053308 -0.092182256281 -0.12264055014 -0.15992635489 -0.21159780025 -0.28746730089
          -0.34733629227 -0.37519818544 -0.44802129269 -0.38834047318 -0.021121649072 -0.44309574366
          -0.42950379848 -0.45706123114 -0.50406497717 -0.44573876262 -0.43845492601 -0.38337999582
          -0.34222200513 -0.26711693406 -0.2213613987 -0.20513652265 -0.16306294501 -0.12513430417
          -0.090341053903 -0.061305560172 -0.035219334066 -0.0096252802759 -0.012362014502 0.009566036053
          0.0022185982671 3.9775302866e-05 -0.020195815712 -0.035728182644 -0.043612658978 -0.03751033172
          -0.030998015776 -0.022048084065 -0.015516742133 -0.012423063628 -0.014046654105 -0.011486151256
          -0.013705605641 -0.017200719565 -0.015487745404 -0.01738169603 -0.016188355163 -0.018770361319
          -0.01459711045 -0.014118120074 -0.011279899627 -0.017104912549 -0.015055312775 -0.016540849581
          -0.011862229556 -0.014661337249 -0.012334289029 -0.013950335793 -0.02111598663 -0.014862033539
          -0.018324846402 -0.019052565098 -0.013320984319 -0.015186321922 -0.01641940698 -0.017197398469
          -0.015995359048 -0.018273856491 -0.014490333386 -0.016753083095 -0.015613496304 -0.014556834474
          -0.014417425729 -0.016659222543 -0.014435581863 -0.015363066457 -0.017999323085 -0.017654029652
          -0.014698269777 -0.014814534225 -0.015576434322 -0.018113201484 -0.014195286669 -0.01757296361
          -0.018273066729 -0.015150216408 -0.017664890736 -0.01487366017 -0.018771937117 -0.018200321123
          -0.015366725624 -0.014436994679 -0.015985568985 -0.01755473204 -0.014344613999 -0.018556093797
          -0.017412843183 -0.01684731245 -0.019127978012 -0.01459051203 -0.017204059288 -0.014963436872
          -0.017318906263 -0.014198972844 -0.010665569454 -0.018013253808 -0.017521077767 -0.01037434116
          -0.012367117219 -0.013456251472 -0.013376857154 -0.01384811569 -0.016731612384 -0.015360992402
          -0.017632249743 -0.023186258972 -0.014657191932 -0.016107583418 -0.016190238297 -0.011766437441
          -0.016790155321 -0.019126381725 -0.013050210662 -0.018144700676 -0.013813544996 -0.0091170314699
          -0.020829673856 -0.030544677749 -0.037215922028 -0.043862204999 -0.038845855743 -0.015318011865
          -0.0061291581951 0.0015943498584 0.0084429513663 -0.0098117152229 -0.0096235238016 -0.036765150726
          -0.059056647122 -0.088914260268 -0.12456873804 -0.16740590334 -0.21084694564 -0.22586801648
          -0.27388641238 -0.33990058303 -0.37957251072 -0.41042149067 -0.39634111524 -0.42965477705
          -0.35190582275 -0.32879477739 -0.2789581418 -0.23261015117 -0.21671521664 -0.1689646244
          -0.12442641705 -0.097552783787 -0.065988987684 -0.032805074006 -0.011356296949 0.011467821896
          0.0066083976999 -0.00055363710271 -0.020887406543 -0.040789999068 -0.042892295867 -0.035974722356
          -0.028561431915 -0.029005471617 -0.026027865708 -0.020933913067 -0.021139957011 -0.024939954281
          -0.027408786118 -0.024566436186 -0.025105893612 -0.028195597231 -0.023425199091 -0.019357221201
          -0.021080706269 -0.025657486171 -0.013611140661 -0.024798199534 -0.031718406826 -0.022487493232
          -0.02450392209 -0.029313333333 -0.027174411342 -0.024486452341 -0.026216799393 -0.026827985421
          -0.027487579733 -0.027530105785 -0.026143319905 -0.027277857065 -0.017851678655 -0.024533953518
          -0.023879429325 -0.026745472103 -0.025176523253 -0.023803232238 -0.027627021074 -0.026135150343
          -0.027289196849 -0.02680326812 -0.025131328031 -0.024986103177 -0.025965902954 -0.027824338526
          -0.02930110693 -0.02428274788 -0.027472946793 -0.028178011999 -0.028287222609 -0.026852466166
          -0.024085009471 -0.028603002429 -0.024697251618 -0.02399616316 -0.017401557416 -0.026676014066
          -0.028501337394 -0.016886580735 -0.019700931385 -0.022801252082 -0.02181202732 -0.024574065581
          -0.017723347992 -0.024821141735 -0.027108831331 -0.023464592174 -0.026148229837 -0.020466083661
          -0.02747229673 -0.035244487226 -0.043650273234 -0.036296289414 -0.02332793735 -0.0031675284263
          0.0070243524387 0.010486024432 -0.012617598288 -0.036335088313 -0.063100017607 -0.092196144164
          -0.13191142678 -0.16869217157 -0.17425826192 -0.21809257567 -0.23265376687 -0.32657712698
          -0.22354967892 -0.17758618295 -0.17195229232 -0.12803889811 -0.098153620958 -0.064946830273
          -0.034631993622 -0.011379254982 0.0052859964781 0.016191035509 0.0067670997232 -0.015250494704
          -0.035963322967 -0.040401495993 -0.043701086193 -0.037297062576 -0.035420190543 -0.034605033696
          -0.02814431116 -0.026312291622 -0.032136157155 -0.037017744035 -0.041734512895 -0.037550233305
          -0.034840021282 -0.03885397315 -0.03817275539 -0.036524649709 -0.028991378844 -0.038019672036
          -0.02876807563 -0.03955745697 -0.039398781955 -0.036961067468 -0.030308349058 -0.029292687774
          -0.037016130984 -0.040111791342 -0.039864357561 -0.039482872933 -0.039831023663 -0.028397902846
          -0.037068806589 -0.028289597481 -0.027405254543 -0.038780089468 -0.03595181182 -0.031510911882
          -0.032998841256 -0.035936269909 -0.028564581648 -0.03755068779 -0.039105899632 -0.039614066482