<?xml version="1.0"?>
<VTKFile type="UnstructuredGrid" version="0.1" byte_order="LittleEndian" header_type="UInt32" compressor="vtkZLibDataCompressor">
  <UnstructuredGrid>
    <Piece NumberOfPoints="5137" NumberOfCells="2623">
      <PointData Scalars="Spannung:Scherdehnung ZX">
        <DataArray type="Float32" Name="Spannung:Scherdehnung ZX" format="ascii" RangeMin="-0.089033253491" RangeMax="0.16511383653">
          -0.050821539015 -0.050821539015 -0.045058142394 -0.045641422272 -0.045641422272 -0.044904954731
          -0.02545376122 -0.02545376122 -0.020306397229 -0.023667056113 -0.023667056113 -0.027417136356
          0.072191238403 0.072191238403 0.063299782574 0.051420208067 0.051420208067 0.062860243022
          0.00043962779455 0.00015200497 -0.013274224475 -0.056754473597 0.033345595002 0.018347609788
          0.010864170268 0.041910290718 0.033515684307 0.019331498072 -0.0032866292167 0.00054780580103
          -0.00014572094369 -0.0081704324111 0.007313312497 8.8221684564e-05 0.016267890111 0.024769766256
          0.011712344363 0.032609224319 0.053719390184 -0.0084671219811 -0.0498255454 -0.026520095766
          -0.018840843812 -0.0059221005067 0.026813717559 -0.0047191106714 -0.0032614567317 0.099737234414
          -0.074783310294 -0.05734334141 -0.020916294307 -0.049963545054 0.095747545362 -0.0049333721399
          -0.067619763315 -0.084836304188 -0.027149753645 -0.061383672059 0.018038595095 0.085663564503
          0.097479067743 0.028095504269 0.0023274840787 0.14176176488 0.13283899426 0.0056685060263
          -0.0097803799435 0.013289663941 -0.045251209289 -0.078155301511 -0.081657320261 -0.05637896806
          -0.0088274748996 0.00935398601 -0.023021366447 0.021945927292 0.014747358859 0.0052162199281
          -0.00027501076693 -0.0044725053012 -0.0048400964588 -0.0039939596318 -0.0051494794898 -0.0078194690868
          -0.010260865092 -0.008827958256 -0.01071219705 0.01511383336 0.015199537389 0.0096458047628
          0.022830856964 0.024006206542 0.016983419657 -0.0012222303776 -0.003043747507 -0.00022631058528
          0.0037759896368 -0.0038961982355 -0.011100403965 -0.015771793202 -0.019446253777 -0.02186726965
          -0.019199447706 -0.0065757120028 0.032433968037 -0.024160688743 0.017425550148 -0.004804527387
          -0.013190305792 -0.013121278025 0.014401339926 -0.022268602625 -0.0055868639611 0.023227307945
          0.018760986626 -0.011854498647 -0.033722545952 0.029840085655 -0.067495569587 -0.04073151201
          0.10533312708 -0.025879399851 -0.041644688696 0.06476996839 0.010328135453 0.013533400372
          0.00069061148679 -0.002897143364 -0.016975710168 -0.01259296108 -0.012319114991 -0.0091474344954
          -0.0091503616422 -0.0020184144378 0.010453750379 0.0066485428251 -0.00010179245146 -0.0013214590726
          -0.001234792755 0.015873478726 0.024791345 -0.0097601152956 -0.008295035921 -0.0069165984169
          -0.0031576352194 -0.0028940371703 -0.0011010846356 -0.002704688115 0.056501489133 0.10048410296
          -0.066726781428 -0.055723980069 -0.028370616958 -0.038760989904 -0.029705625027 0.016837066039
          -0.016787383705 0.10120236129 -0.034002229571 0.05884995684 0.00715186866 0.002734660171
          0.0021992484108 0.00032698680297 -8.1686455815e-05 -0.020044678822 -0.018933355808 -0.020286383107
          -0.018623331562 -0.016705086455 -0.013204770163 -0.0073432167992 -0.0056756311096 -0.0011070404435
          0.0029356740415 0.0093324491754 0.0065652457997 0.0042362832464 0.0029894332401 0.001023793011
          -0.0010287284385 -0.002389320638 -0.005162215326 -0.012373677455 0.020380191505 0.024128733203
          0.028344836086 0.031905014068 0.031396519393 -0.00744933635 -0.0072582741268 -0.0091946665198
          -0.0094404127449 -0.0044670538045 0.0010882398346 0.00087363831699 2.2233212803e-05 -0.0055232872255
          -0.00041591754416 5.9375077399e-05 0.00028143994859 0.0011198513675 0.0028665852733 0.036438018084
          -0.035119667649 -0.034612983465 -0.026451483369 -0.014983836561 0.011327409185 0.010311865248
          0.010108253919 0.010114489123 0.0095408130437 0.011215250939 0.012235854752 0.016583735123
          -0.033495154232 -0.032691963017 -0.033975608647 -0.035811930895 -0.038599096239 -0.042449355125
          -0.049534376711 -0.03683738783 -0.041542939842 -0.051409162581 -0.038118105382 -0.037152864039
          -0.038609724492 -0.040669891983 -0.043673422188 -0.047720622271 -0.055160649121 -0.063218735158
          0.0028723408468 -0.0048900078982 -0.0088889673352 -0.013203155249 -0.016254847869 -0.020468277857
          -0.023748319596 -0.026916187257 -0.025392115116 -0.024669475853 -0.024093024433 0.0013332079398
          0.00042793093598 -0.00016969948774 -0.0013668109896 -0.0020868233405 -0.0023575467058 -0.0014252004912
          0.070855692029 0.071639150381 0.065412923694 0.026930324733 0.027048580348 0.028184918687
          0.031238131225 0.033485710621 0.036404188722 0.041531316936 0.032426100224 0.028492806479
          0.028352933004 0.023865111172 0.020794890821 0.015186886303 0.032657999545 0.032644499093
          0.034086924046 0.036772754043 0.040332756937 0.044028650969 0.050570353866 0.023555453867
          0.026860306039 0.027636310086 0.014388689771 0.014653726481 0.022790580988 0.030765909702
          0.037574928254 0.046847898513 0.10209666193 0.025672698393 0.029323955998 0.024474939331
          0.01823563315 0.012052805163 0.01137063466 0.023092970252 0.022732716054 0.020313275978
          -0.0037397765554 0.00067352282349 0.0086640492082 0.012418418191 0.01331797801 0.021310998127
          0.019770363346 -0.0038696394768 -0.007983985357 -0.014194306917 -0.015125900507 -0.013624932617
          -0.01015249081 -0.0076980078593 -0.0058833668008 0.00078333524289 0.00049003690947 -0.00015477577108
          -0.011282876134 -0.003564777784 -0.0021006984171 -0.0010047033429 0.00080837466521 0.003317396855
          0.0047727483325 0.0093499310315 -0.0091320890933 -0.0086438721046 -0.024421427399 -0.027555808425
          -0.025344787166 -0.013226198032 -0.01346937567 -0.024304268882 -0.033489011228 -0.040718473494
          -0.059217095375 -0.089033253491 0.02947983332 0.015931807458 0.012362502515 0.0085609434173
          0.0029540848918 0.0029199793935 0.010246780701 0.0096271624789 0.0087955715135 0.0034705647267
          0.00083208171418 2.3505026547e-05 -0.00018070919032 -0.00096048315754 -0.0025404242333 -0.0015063507017
          -0.00096545467386 0.00099729758222 0.0025004216004 0.003001982579 0.0091058705002 -0.019432581961
          -0.058757770807 -0.045326836407 -0.036745861173 -0.026923486963 -0.015285038389 -0.014750337228
          -0.036019951105 -0.032515197992 -0.0282643307 0.00081989105092 0.0014721022453 0.0059597776271
          -0.00019259468536 -6.2869519752e-05 0.00026483999682 0.029482245445 0.028051132336 0.0021125357598
          -0.024056110531 -0.019456019625 -0.0011213871185 -0.00064260390354 0.028220580891 0.028856268153
          -0.021006807685 0.0004666452005 -0.027889965102 -0.0011535068043 0.0002041136031 0.0036230566911
          -0.033380005509 -0.004700968042 -0.024662943557 -0.044804286212 0.0093112057075 0.0060811475851
          0.0047138514929 0.0037610363215 7.4215407949e-05 0.0034804306924 0.002034412697 -0.0055809607729
          -0.031577650458 -0.030050201342 -0.027895543724 -0.027044620365 -0.024953361601 -0.023339347914
          -0.019223997369 -0.017701469362 -0.014498113655 -0.012230245396 -0.0092157712206 -0.0065317479894
          -0.0032254417893 -0.00033687535324 0.0025164885446 0.0057716914453 -0.030864749104 -0.030746933073
          -0.028553118929 -0.027813401073 -0.034429728985 -0.029684267938 -0.037244737148 -0.036537904292
          -0.021589158103 0.0014572482323 -0.00031832407694 -0.0031468390953 -0.0081839403138 -0.0052446005866
          -0.0082875164226 -0.015905408189 -0.027873147279 -0.022495973855 -0.018271489069 -0.014371193014
          -0.011339588091 -0.0062731723301 -0.021303994581 -0.025900350884 -0.025887491181 -0.014362571761
          -0.015428041108 -0.040206324309 -0.028008887544 -0.056069999933 -0.040715530515 -0.022291220725
          -0.036311972886 -0.036277428269 -0.035874400288 -0.037072151899 -0.035431984812 -0.040516883135
          -0.044407252222 -0.045274429023 -0.00058069650549 -0.0041638412513 -0.0077223810367 -0.010239839554
          -0.012486662716 -0.015430758707 -0.018356146291 -0.021671930328 -0.022773677483 -0.026497265324
          -0.027646932751 -0.030174097046 -0.03191427514 -0.033764094114 -0.033748909831 -0.035128813237
          -0.0038163387217 -0.0053163832054 -0.0086565092206 -0.0094830626622 -0.0080678714439 -0.010494531132
          -0.011187903583 -0.019117975608 -0.031834784895 -0.03379111737 -0.033950053155 -0.031273759902
          -0.027905657887 -0.033408030868 -0.035555772483 -0.031237073243 -0.00829951372 -0.014599255286
          -0.019654270262 -0.022882152349 -0.025300825015 -0.028933484107 -0.016589051113 -0.016178775579
          -0.021921070293 -0.02219141461 -0.024642318487 0.0351174362 0.043541058898 0.065599322319
          0.067297227681 0.068979069591 0.059168048203 0.027099141851 0.030568590388 0.03071696125
          0.032133985311 0.032870106399 0.033716745675 0.035122402012 0.037418622524 0.04066933319
          0.044558946043 0.05225136131 0.039798676968 0.03820187971 0.03753843531 0.0375164859
          0.034312441945 0.031640574336 0.032722588629 0.035997122526 0.037435419858 0.040497515351
          0.038705639541 0.038756709546 0.036386497319 0.035321418196 0.037706151605 0.037444394082
          0.03651824221 0.04228983447 0.039504297078 0.05087787658 0.045709729195 0.052993860096
          0.055624995381 0.056312378496 0.035013265908 0.03502073139 0.035633765161 0.039376296103
          0.043677706271 0.036564692855 0.036332130432 0.036561373621 0.036930818111 0.036496501416
          0.039357014 0.045429524034 0.050226662308 0.049468379468 0.03549619019 0.037021309137
          0.040061682463 0.044082384557 0.036283753812 0.037567809224 0.0096898376942 0.020544368774
          0.012539477088 0.025796556845 0.040984164923 0.030012279749 0.061827726662 0.0084157828242
          0.011468446814 0.011832580902 0.0092217214406 0.065938219428 0.038169264793 0.024395922199
          0.014713332057 0.018566241488 0.025855645537 0.017562806606 0.03742742911 0.020056368783
          0.02892520465 0.02313747257 0.0028416886926 0.0028669766616 0.001659376896 0.00027060505818
          0.00079383031698 -0.00017625646433 1.05743311e-05 -0.000388701068 0.00054407824064 3.1414860132e-05
          -0.0033050514758 -0.012562703341 -0.0231394656 -0.033933993429 -0.031196178868 -0.0047797630541
          -0.0040162992664 -0.0041570602916 -0.0041883266531 -0.0041535003111 -0.0098580075428 -3.6348828871e-05
          0.0034302710555 -0.0013691287022 -0.013811438344 -0.0073347557336 -0.01734355092 -0.0051573892124
          -0.0060500698164 0.0032954998314 0.0025384321343 0.00050689617638 0.0013006021036 -0.00028439465677
          8.7427230028e-05 0.00026329347747 -0.00054761575302 -0.00025687614107 0.00053368491353 -0.0062981555238
          -0.0058250455186 -0.0077544860542 -0.0035811045673 -0.0093142576516 -0.029463015497 -0.0063814525492
          -0.0068579148501 -0.0083105191588 -0.0056452443823 -0.056823909283 -0.038835022599 -0.028005734086
          -0.017339989543 -0.012147709727 -0.010913183913 -0.022255364805 -0.013371462934 -0.020458607003
          -0.0007933016168 -0.0013536486076 -0.00064618012402 -0.00013463871437 0.0006022839807 0.00020858530479
          -0.0006350914482 -0.002308184281 -0.00076013657963 -0.0020983868744 -0.0010580392554 0.01925127767
          0.008162192069 0.027150973678 0.022350877523 0.024000847712 0.018836168572 0.01438859757
          0.020103208721 0.018852708861 0.022479636595 -0.027783209458 -0.021379254758 -0.023052157834
          -0.01696931757 0.0047885114327 0.0063188089989 0.0057962802239 0.0089168082923 0.015717709437
          0.00043670850573 -0.00069415901089 -0.0008105187444 -0.00052978598978 -0.019271783531 -0.026306888089
          -0.024010384455 -0.031676795334 0.0082023376599 0.0085888691247 0.0042795096524 0.0011225891067
          0.0068109445274 0.00036466884194 -0.009895385243 -0.0027850298211 -0.006399337668 -0.010368153453
          0.0071461698972 0.010986452922 -0.009885860607 -0.013080610894 0.0069927321747 0.009607816115
          0.019433725625 -0.0067945267074 -0.0092342924327 -0.0046226526611 0.0046920198947 -0.01732426323
          -0.028033478186 -0.019564546645 -0.0075213434175 -0.019372500479 -0.012681682594 -0.022392926738
          -0.021557845175 -0.034263398498 -0.011474560946 -0.014845616184 0.014693722129 0.036338347942
          0.036747813225 0.041728068143 0.01799800992 0.047064337879 0.024415219203 -0.0064422059804
          -0.027614971623 0.0034035465214 0.032865542918 0.016228418797 -0.0050423461944 -0.0013700170675
          0.022999329492 -0.024354360998 -0.020607952029 -0.020956771448 0.00038998899981 0.0015841993736
          -0.00023579447588 -0.010502884164 -0.0075948531739 -0.014300027862 -0.0094431079924 -0.01257121563
          -0.011947357096 -0.0068752206862 -0.0071971528232 -0.0077374880202 -0.013894050382 0.011192528531
          0.009554784745 0.013101544231 0.022535255179 0.0089048100635 -0.010532965884 -0.015835864469
          -0.0074665765278 -0.0012788008898 0.0029585510492 0.0023002061062 -0.012421169318 -0.015991255641
          -0.040203943849 -0.054985441267 -0.029956797138 0.070073574781 0.074213638902 -0.020236440003
          -0.023075118661 0.035619273782 -0.012334970757 -0.028642531484 -0.025730330497 -0.042671725154
          -0.029087390751 -0.029858779162 0.055636718869 0.051870640367 0.054255098104 0.036160882562
          -0.018382351846 -0.032773789018 0.052404750139 -0.029446715489 -0.016492167488 -0.032888382673
          0.040804002434 0.041241396219 0.036255411804 0.017244469374 0.01392814517 0.038179691881
          0.020631084219 0.017065392807 -0.017022963613 -0.047721758485 -0.0271894373 -0.029451141134
          -0.015226378106 0.0006031744997 -0.053691625595 -0.0051849521697 -0.0187784601 0.077890701592
          0.097009018064 0.09538308531 0.019348487258 0.021775538102 0.0095744878054 -0.001218038029
          0.010397344828 0.0032186154276 -0.010023976676 -0.012499045581 -0.0041109677404 0.021795278415
          0.02345219627 0.02136083506 0.019290536642 -0.01592073217 -0.01986528933 0.0028881675098
          0.00078322296031 -0.0051730037667 -0.0036427883897 -0.022622231394 -0.019798347726 -0.017559304833
          0.00057517760433 0.00041691135266 0.022599708289 -0.017421117052 0.018319226801 -0.030925100669
          -0.022754257545 -0.034422874451 -0.031003914773 0.047794323415 0.061950959265 0.0193118155
          -0.0048218579032 -0.006083405111 -0.020845102146 -0.019221225753 -0.020906873047 -0.00081787549425
          -0.02104543522 -0.013151845895 -0.020939948037 -0.039720028639 -0.035929951817 -0.062867082655
          -0.064216971397 0.083294816315 0.081887081265 0.085123367608 -0.034093346447 -0.024175310507
          0.00087664974853 -0.027455545962 0.066449552774 -0.02201175876 -0.031597420573 -0.058801647276
          -0.052379161119 -0.042011506855 0.080986186862 0.062777556479 0.060415916145 0.0644062832
          -0.0078912051395 -0.048123382032 -0.05798471719 0.066898293793 0.075148269534 -0.016518486664
          -0.035752244294 -0.046152219176 -0.031377494335 -0.012494892813 -0.0090353228152 -0.013387952931
          -0.057001557201 -0.057001557201 -0.053937342018 -0.053937342018 -0.024872878566 -0.024872878566
          -0.031103027984 -0.031103027984 0.075989082456 0.075989082456 0.058955255896 0.058955255896
          1.4204394574e-05 -0.066165164113 0.051204785705 0.036871153861 0.019184563309 0.022576306015
          0.018981486559 0.012052334845 0.0024349803571 -0.0016937751789 -0.0044691129588 -0.0033405276481
          0.00011587596964 -0.0017419166397 -0.0041335467249 -0.0067858458497 -0.0075002503581 -0.0082562221214
          -0.011826335452 -0.006995851174 0.012741186656 0.012634904124 0.012587604113 0.0055097192526
          0.021190268919 0.02362595126 0.021940430626 0.020299931988 0.0082605155185 -0.0028204538394
          -0.00042610717355 0.000269283948 0.0073543363251 0.00256228121 -0.007949850522 -0.012330419384
          -0.022067347541 -0.025961644948 -0.028099417686 -0.014045244083 -0.0022974559106 0.04926449433
          0.020074360073 -0.017758075148 -0.046117648482 0.030635273084 0.0044410587288 -0.01162112318
          -0.022588437423 -0.016790498048 -0.018065275624 -0.0025480722543 -0.003441619454 0.025421150029
          0.025489494205 -0.024499475956 -0.017496580258 0.010517493822 0.027513556182 0.027378775179
          0.0074775586836 -0.014852643944 -0.0095092663541 -0.046060215682 -0.020461458713 0.01513161324
          0.051421739161 -0.0030380082317 -0.075131595135 -0.062362510711 0.0043048067018 -0.039749778807
          -0.047370720655 -0.0016582809621 0.1101340726 0.10418852419 0.0029774613213 -0.015951622277
          -0.035882368684 -0.048537429422 -0.056771613657 -0.069712363183 -0.033110097051 -0.015374043025
          0.057649444789 0.084681406617 0.078548692167 0.063502982259 0.16511383653 0.11405178159
          0.006694227457 0.012323411182 0.013524905778 0.10205181688 0.12432964891 0.017883760855
          0.0004951969604 -0.00078714231495 -0.0098982388154 -0.023093661293 -0.020373990759 -0.015761928633
          -0.011455751956 -0.0052715921775 0.0033459083643 0.0099644809961 0.0015135272406 -0.00040641747182
          -0.00037284285645 0.0065622888505 0.021467726678 0.022301772609 -0.033666338772 -0.060387842357
          -0.064146980643 -0.037048526108 -0.050689700991 -0.034376554191 -0.0071021881886 -0.0079250233248
          -0.0064859054983 -0.0057860747911 -0.0040362314321 -0.00070683041122 0.0011483597336 -0.083967715502
          0.034942567348 -0.081420615315 -0.068521164358 -0.022694056854 -0.0035596503876 -0.0080366916955
          0.011548315175 -0.002377553843 0.026961166412 -0.0047605992295 -0.018765335903 -0.016638081521
          -0.0031856722198 -0.012034569867 0.018227860332 0.0043528107926 0.024028098211 -0.044815655798
          0.04953256622 -0.063170686364 -0.066371291876 -0.061169665307 -0.059893492609 -0.016139108688
          -0.034267079085 -0.039467897266 -0.038947150111 -0.04838469997 0.056463904679 -0.028210001066
          0.10761878639 0.1051107794 0.10747370869 0.10286506265 0.042660500854 0.037579473108
          0.010762272403 -0.0043176170439 0.0013823587215 0.020952802151 0.039754353464 0.043633677065
          -0.027066333219 -0.024515358731 -0.01755280979 -0.0092946505174 -0.018627980724 -0.021023932844
          -0.028732879087 -0.028938757256 -0.034629426897 0.0291056633 0.083002053201 -0.045824874192
          -0.064059466124 -0.032477848232 -0.027245663106 -0.034546643496 -0.028684033081 -0.036103568971
          0.06270635128 -0.0020452977624 0.080611117184 0.10403256863 0.059748467058 -0.022169692442
          0.04327140376 -0.02553107217 -0.036514304578 -0.045467149466 -0.054613776505 0.080897442997
          0.078978456557 0.0067488760687 0.0036866485607 0.0020316629671 0.00082283990923 -0.00015540079039
          -6.975724682e-05 -0.03861156106 -0.018305877224 -0.02048108913 -0.020507810637 -0.018982619047
          -0.014734951779 -0.012335626408 -0.0072198654525 -0.0043541062623 0.0016999626532 0.0070130713284
          0.022888101637 0.0057968911715 0.00514051551 0.0018829252804 0.0020706013311 3.7790487113e-05
          -0.00086489907699 -0.0043305009604 -0.0071264868602 -0.010415897705 0.026584435254 0.023933127522
          0.024796813726 0.033000059426 0.035248126835 0.03350283578 -0.0043208291754 -0.0082311164588
          -0.011111953296 -0.012713406235 -0.011153822765 -0.00084681692533 -0.000471152307 0.00039792872849
          -0.0019493934233 -0.000377338205 -0.0080195534974 -0.0022546299733 -3.881711018e-05 0.00037506475928
          0.00027958035935 0.002184643643 0.0089061921462 0.045191273093 0.034460131079 -0.04370361194
          -0.030340572819 -0.030850164592 -0.029275627807 -0.02472875081 -0.016951495782 0.01735961251
          0.010168056004 0.010369177908 0.010082156397 0.010245482437 0.010748056695 0.012596821412
          0.015348613262 0.011161470786 -0.041410859674 -0.032442640513 -0.033494964242 -0.035014685243
          -0.037643954158 -0.040825758129 -0.046467147768 -0.058837920427 -0.040457788855 -0.038085728884
          -0.047926295549 -0.05180677399 -0.046885956079 -0.036992270499 -0.038021374494 -0.039619073272
          -0.042602982372 -0.045613013208 -0.051807213575 -0.05823713541 -0.075649045408 0.012319169939
          -8.7849373813e-05 -0.0060907681473 -0.011921223253 -0.016672879457 -0.019040713087 -0.023722315207
          -0.027746830136 -0.024827422574 -0.0244889725 -0.023995639756 -0.041049942374 0.0052410783246
          0.0003410478821 0.00027743834653 -0.00068544171518 -0.0016063173534 -0.0015184074873 -0.0015181738418
          -0.0051741506904 0.070294901729 0.071890801191 0.069962926209 0.071972936392 0.02964024432
          0.027068968862 0.027423074469 0.029578750953 0.032443515956 0.035117249936 0.039443410933
          0.051291078329 0.034102205187 0.028791924939 0.031929593533 0.027577947825 0.022620014846
          0.017046514899 0.018655447289 0.038144923747 0.032697569579 0.033183526248 0.035468824208
          0.039059784263 0.042321320623 0.047938212752 0.062332719564 0.013230022974 0.027221042663
          0.025044167414 0.021555092186 0.016340732574 0.014036842622 0.01845471561 0.027223328128
          0.03480296582 0.043762892485 0.066886998713 0.12124417722 0.069350399077 0.033855717629
          0.02704208158 0.021713817492 0.015030415729 0.010802440345 0.012488338165 0.017759926617
          0.021114243194 0.021811222658 0.010348456912 -0.0062225670554 -0.0013934372691 0.0036983562168
          0.0088309962302 0.013228017837 0.018876932561 0.022113233805 0.020306859165 -0.0031208184082
          -0.0040734168142 -0.015365162864 -0.01786313951 -0.01613863185 -0.012637737207 -0.010347132571
          -0.008361691609 -0.0070143914782 0.0037580893841 0.00092584174126 0.00088473776123 0.0045027313754
          -0.010552372783 -0.0063867182471 -0.0020514205098 -0.0014753182186 -0.00030964464531 0.0021191779524
          0.0033168846276 0.0064365053549 0.0091177830473 -0.072034150362 0.067212000489 0.074996113777
          -0.059208258986 -0.017657550052 -0.027601614594 -0.028359347954 -0.02254017815 -0.017132703215
          -0.011974561028 -0.018418869004 -0.029151501134 -0.037279393524 -0.045660607517 -0.071812741458
          -0.073315411806 0.018717521802 0.016863889992 0.014012303203 0.010186585598 0.0057279872708
          0.0025588944554 0.0057958872057 0.012886293232 0.010702420026 0.0095210960135 0.0088293813169
          0.0077335890383 0.0015218916815 0.00050895480672 3.567134263e-05 0.00036208648817 -0.0022097383626
          -0.0060146255419 0.00054968707263 -0.0015214011073 -3.91368485e-05 0.0026275287382 0.002850305289
          0.0024705391843 -0.0040737716481 -0.050373129547 -0.086978822947 -0.050919707865 -0.040596302599
          -0.032173633575 -0.02096715942 -0.013678433374 -0.018092891201 -0.031171077862 -0.034154463559
          -0.031275209039 -0.01926147379 0.00020218551799 0.001653397223 0.0029987555463 0.0027340736706
          -5.6671644415e-05 -0.00029966572765 -4.4176718802e-05 -0.00096381385811 0.00015993590932 -0.0021259807982
          -0.0042471503839 0.0027678029146 0.013385934755 -0.0048006256111 -0.0038644329179 -0.0080986963585
          -0.010885044932 -0.010545748286 -0.013632535934 -0.010560906492 -0.015646528453 -0.017861947417
          -0.015577079728 -0.0070758634247 -0.015377080999 -0.0059052892029 -0.0052772792988 -0.0012471235823
          -0.0047449413687 -0.00074850721285 0.00015874409291 -4.0417875425e-05 0.0024431298953 0.0010988216382
          0.0041197519749 0.0090618254617 0.018566140905 0.012453281321 0.019799847156 0.012478996068
          0.019048677757 0.0053525352851 0.012739945203 0.044413432479 0.034310121089 0.034004423767
          0.032663006335 0.035744220018 0.00049860833678 0.017077902332 -0.024212090299 -0.012128355913
          -0.042189497501 -0.03498031944 -0.025924481452 -0.031637821347 0.023908790201 0.010280384682
          -0.0040589952841 -0.014052343555 -0.016566924751 0.027961013839 0.019264005125 -0.0062467893586
          -0.021756222472 0.016952048987 -0.0084760226309 0.015743942931 0.013747502118 -0.0016185863642
          -0.01100623887 -0.010634859093 0.0017091499176 0.035075116903 0.044238772243 0.030519830063
          0.03450910002 -0.026149841025 -0.018934966996 -0.016695799306 -0.0022021261975 0.014475950971
          0.025359269232 -0.041717901826 -0.033289749175 -0.030931511894 -0.035734429955 -0.015623425134
          0.034401636571 0.011137176305 0.028081469238 -0.0086505375803 0.018392423168 -0.025349399075
          -0.0027605430223 -0.01467982959 0.014282963239 0.015940021724 0.01521843113 -0.012734673917
          5.9634148784e-05 -0.014929057099 0.00063355651218 -0.00098326231819 -0.0081634027883 0.001556865871
          -0.021039275452 -0.024602539837 -0.030912375078 -0.020645579323 -0.023064656183 -0.050482258201
          -0.03876150772 -0.034462980926 -0.028098102659 -0.00093242921866 -0.0016042846255 -0.017704071477
          -0.033717248589 -0.05517224595 0.013591646217 0.010942480527 0.0095581328496 0.0085609126836
          0.0079960376024 0.007588414941 0.0074089202099 0.0067809913307 0.0069596688263 0.00655933097
          0.0073985029012 0.0064475485124 0.0071948133409 0.00436391728 0.0044009857811 -0.034216362983
          -0.031829539686 -0.028537839651 -0.029594857246 -0.028163991868 -0.025737781078 -0.02526512742
          -0.023473249748 -0.022675657645 -0.019298544154 -0.017526397482 -0.0138507355 -0.010012120008
          -0.0085367262363 -0.0059476406313 -0.0030526435003 -0.00067042483715 0.0032796452288 0.0060495366342
          0.0076919752173 0.011118986644 -0.033439859748 -0.031956739724 -0.032367367297 -0.032156083733
          -0.03297438845 -0.032774753869 -0.033400066197 -0.032632414252 -0.038366813213 -0.036593351513
          -0.043586596847 -0.04003239423 -0.047574687749 -0.014421541244 -0.024927478284 -0.035827249289
          0.0077285734005 0.0053386860527 0.0023425437976 0.0041442746297 0.0020940646064 0.0022102179937
          0.0049381093122 0.0015299913939 0.0029383851215 -0.0014084471622 0.0040691522881 -0.0045480346307
          -0.030857756734 -0.028922881931 -0.026699228212 -0.027258731425 -0.026405261829 -0.023828458041
          -0.023996345699 -0.021648794413 -0.02024063468 -0.018037982285 -0.016276825219 -0.01455875393
          -0.012669691816 -0.011599571444 -0.0090768476948 -0.0068218796514 -0.0057449415326 -0.004899545107
          -0.0019175170455 0.0012512992835 0.00065982725937 0.0038120322861 0.0075446562842 -0.031127806753
          -0.030971350148 -0.03153212741 -0.029614748433 -0.034345488995 -0.029044546187 -0.02807979472
          -0.035837881267 -0.031788572669 -0.044232279062 -0.036926280707 -0.041171442717 -0.015628105029
          -0.030836859718 0.0063296142034 0.0039058735128 0.0031822167803 0.0001086497432 -0.0012775666546
          0.00043399902643 -0.0017063671257 -0.0025946174283 -0.00080952531425 -0.0017816949403 -0.0029385120142
          -0.007289131172 -0.03052476421 -0.029324963689 -0.028088739142 -0.027315733954 -0.026190297678
          -0.026192663237 -0.024997370318 -0.022749610245 -0.020966868848 -0.019077762961 -0.017776746303
          -0.016063384712 -0.013086151332 -0.011861855164 -0.01024971623 -0.007788005285 -0.0058953491971
          -0.0041498644277 -0.0018283447716 -0.0011433148757 0.00082264700904 0.0025935929734 0.0042885630392
          -0.029315818101 -0.029208581895 -0.028088018298 -0.025327382609 -0.024852422997 -0.025395942852
          -0.024914389476 -0.031041983515 -0.030228579417 -0.027348291129 -0.030922252685 -0.031300410628
          -0.01449770201 -0.022999485955 -0.028989480808 -0.0034113589209 -0.004740705248 -0.0055684810504
          -0.0044700619765 -0.0069571197964 -0.0066239316948 -0.012349143624 -0.011564843357 -0.02052475512
          -0.015806723386 -0.014624483883 -0.012938339263 -0.0086233830079 -0.023290961981 -0.021886564791
          -0.026120532304 -0.02399257943 -0.018671281636 -0.0071068680845 -0.011599255726 -0.010359209031
          -0.01224439498 -0.015525827184 -0.01924879849 -0.016035003588 -0.014278650284 -0.012582051568
          -0.0097248218954 -0.020743597299 -0.018410976976 -0.020151548088 -0.020623911172 -0.01144332625
          -0.015013240278 -0.017812898383 -0.033794276416 -0.043690513819 -0.063248947263 -0.039961010218
          -0.047354612499 -0.035470701754 -0.036411207169 -0.028986847028 -0.0073096007109 -0.046057868749
          -0.034612860531 -0.035727914423 -0.04252968356 -0.066826537251 -0.049381427467 -0.032993517816
          -0.019128503278 -0.038694642484 -0.038258690387 -0.036598842591 -0.037005417049 -0.037447400391
          -0.037609722465 -0.038174748421 -0.039231333882 -0.040218699723 -0.042272757739 -0.044069033116
          -0.046235255897 -0.049878206104 -0.056791417301 -0.057750139385 0.0033338775393 0.0014564874582
          -0.0019045473309 -0.0038525226992 -0.0065078241751 -0.010260915384 -0.013113980182 -0.014589300379
          -0.017333416268 -0.021027494222 -0.023617360741 -0.026335779577 -0.028290310875 -0.026736104861
          -0.030658233911 -0.032498408109 -0.032419934869 -0.033438518643 -0.034543182701 -0.033672086895
          -0.036234583706 0.00068059575278 -0.00031327424222 -0.0021091464441 -0.0014021304669 -0.0034221690148