<?xml version="1.0"?>
<VTKFile type="UnstructuredGrid" version="0.1" byte_order="LittleEndian" header_type="UInt32" compressor="vtkZLibDataCompressor">
  <UnstructuredGrid>
    <Piece NumberOfPoints="5137" NumberOfCells="2623">
      <PointData Scalars="Spannung:Lotrechte Spannung ZZ">
        <DataArray type="Float32" Name="Spannung:Lotrechte Spannung ZZ" format="ascii" RangeMin="-0.089506156743" RangeMax="0.18776912987">
          -0.019393227994 -0.019393227994 -0.055201146752 -0.032250359654 -0.032250359654 -0.045932855457
          -0.029957607388 -0.029957607388 -0.048625256866 -0.035528529435 -0.035528529435 -0.053288478404
          -0.031534675509 -0.031534675509 -0.055750902742 -0.03813039884 -0.03813039884 -0.053758557886
          -0.003495360259 0.00022328746854 0.021615169942 0.072396740317 0.078571945429 0.030892537907
          0.022136753425 0.073873400688 0.053043480963 -0.046577785164 -0.046122416854 0.0017137550749
          0.0003333564091 0.019776938483 0.019214102998 0.018811117858 0.030861813575 0.099585749209
          0.055179536343 0.007190159522 -0.077128522098 -0.089506156743 -0.074198663235 0.0033719241619
          0.082729965448 0.023079268634 0.06010819599 0.035527732223 -0.085952825844 0.07752558589
          0.069171816111 0.080679267645 0.087870523334 0.091860063374 0.076726362109 0.12709356844
          0.13147826493 0.12634424865 0.13213244081 0.076317444444 0.07808406651 0.12177123874
          0.12404923141 0.074120655656 0.020825102925 0.10251069069 0.090748429298 0.026141669601
          -0.039259500802 0.030119918287 0.092236764729 0.073071785271 0.088611796498 0.091168113053
          0.015676138923 0.019344560802 0.028394110501 -0.042894016951 -0.046952974051 -0.012546855025
          -0.00044029965647 -0.0078481994569 -0.042406696826 0.023182822391 0.01499437727 0.020288789645
          0.026284728199 0.023954337463 0.030285317451 0.020278817043 0.026594908908 0.01803041622
          0.098930828273 0.087943211198 0.084344998002 0.053252380341 0.0049904929474 -0.00061038427521
          0.0064322799444 0.086869448423 0.0931167081 0.097477540374 0.095500893891 0.10420305282
          0.086097426713 0.027152571827 -0.079055979848 -0.074086859822 0.009159903042 -0.016884086654
          0.0012478003046 0.061281427741 0.066360652447 -0.011554596946 -0.0082396045327 -0.0012251547305
          0.071396455169 0.021005561575 -0.076557405293 -0.077330581844 0.094792917371 0.10026453435
          0.10505350679 0.08932518959 0.085599727929 0.089199915528 0.022680126131 0.024194642901
          0.00037311617052 0.012194629759 0.074264749885 0.084446325898 0.096256837249 0.096118450165
          0.088890634477 0.08857242763 0.072105661035 0.014425755478 -0.0001011606364 0.0012472374365
          0.027971114963 0.084280461073 0.089486323297 0.031972099096 0.025893807411 0.029656738043
          0.022778514773 0.029134899378 0.0222755 0.05359261483 0.058470647782 0.032199181616
          0.036693148315 0.035782311112 0.056762885302 0.042611062527 0.047128837556 0.051332879812
          0.050256919116 0.036227725446 0.058587890118 0.049403499812 -0.0021928674541 -6.0544854932e-05
          0.0013648638269 0.00024503303575 0.00028573194868 0.052752882242 0.047470413148 0.048798196018
          0.039679393172 0.040748395026 0.040717929602 0.043701894581 0.039534963667 0.050698071718
          0.050933226943 0.057591810822 -0.00417266367 -0.0020253683906 -0.00012859361595 -0.00061926688068
          -0.00023527083977 -0.00061153387651 0.00044271897059 -0.0045449342579 0.055726312101 0.051939155906
          0.049575194716 0.037303134799 0.030123369768 -0.039918836206 -0.045027453452 -0.044443368912
          -0.039923399687 -0.047782685608 -0.029100354761 -0.0018015413079 -0.001298819785 0.00064603582723
          0.00079363334225 -0.00026369324769 -8.7023472588e-05 0.00034692219924 -0.0017624143511 -0.016840044409
          -0.016520610079 -0.03513861075 -0.024423602968 -0.040855415165 0.043395329267 0.044869177043
          0.047404836863 0.052288025618 0.056885682046 0.062972195446 0.070044361055 0.077368922532
          0.041837334633 0.043951608241 0.046748813242 0.051539838314 0.056559301913 0.063050590456
          0.071875452995 -0.029301803559 -0.030689286068 -0.034894201905 0.043643947691 0.045206446201
          0.047830041498 0.052363719791 0.056885633618 0.062961600721 0.070283316076 0.076494418085
          0.058315772563 0.051416546106 0.052134301513 0.040561497211 0.042361270636 0.041778292507
          0.042202200741 0.050111409277 0.051739301533 0.050784762949 0.057640150189 0.043351668864
          0.044987678528 0.04723072052 0.051683165133 0.056524720043 0.062636263669 0.070918999612
          -0.041468959302 -0.025245729834 -0.029933547601 0.047419007868 0.046018250287 0.047250840813
          0.05198405683 0.056889098138 0.062381591648 0.070400297642 0.032193314284 0.03954346478
          0.026857083663 0.042898997664 0.051923584193 0.054647453129 0.046201545745 0.045117873698
          0.046593192965 0.051734760404 0.056483469903 0.062583707273 0.071570642292 0.012860084884
          0.010087158531 0.013690263033 0.01803785935 0.019799586385 0.033901154995 0.045884851366
          0.057030200958 0.072096072137 0.12803512812 0.06471016258 0.056741431355 0.047197658569
          0.034727770835 0.019567376003 0.018382338807 0.013317283243 0.011447540484 0.013762105256
          -0.0049976650625 -0.00090439204359 -0.016030652449 -0.041274581105 -0.048754628748 -0.03609226644
          -0.043309066445 -0.036051057279 -0.048785652965 -0.046565528959 -0.049434024841 -0.049931738526
          -0.068334139884 -0.063465043902 -0.045064445585 0.013091895729 0.010875361972 0.014802493155
          -0.0039306771941 -0.00077606562991 0.00066859991057 -0.00044291571248 0.00097666971851 0.00023800683266
          -0.0013612532057 -0.0042930017225 -0.055860131979 -0.052283253521 0.01225048583 0.0093823065981
          0.010278821923 0.018758349121 0.020291991532 0.034049473703 0.045926168561 0.057260297239
          0.07623976469 0.12608586252 0.064782015979 0.05691235885 0.047580897808 0.033931259066
          0.020033495501 0.018256073818 0.015877677128 0.011632359587 0.014073596336 0.0030558442231
          -0.00021740248485 0.00022027976229 0.00018007290782 -0.0027270249557 0.00085332762683 0.017828496173
          0.020767115057 0.034180115908 0.04571731016 0.057176612318 0.075208559632 0.11920146644
          0.071319624782 0.056746833026 0.047553215176 0.034072294831 0.019879385829 0.01801248081
          0.014723980799 0.011101391166 0.013689777814 0.00091765547404 -0.0011142657604 -0.003730160417
          0.00017225915508 0.00015823522699 0.0024636050221 -0.023373240605 -0.011863678694 -0.02848213166
          -0.020227236673 -0.01747982949 -0.014364216477 -0.018505362794 -0.026141736656 -0.01358164195
          -0.013037961908 -0.010847624391 -0.025354750454 -0.02503862232 -0.020099107176 0.017834534869
          0.013344805688 0.08130466193 0.076482579112 0.084062583745 0.049060322344 0.045716125518
          0.046983234584 0.049710277468 0.048927918077 0.053996369243 0.059134803712 0.066610097885
          0.048434056342 0.044241458178 0.045346982777 0.050416834652 0.046975921839 0.047317825258
          0.046630889177 0.048145957291 0.047272596508 0.052692979574 0.047310821712 0.052409980446
          0.048245981336 0.047328170389 0.046434443444 0.044610105455 0.045338094234 0.045996006578
          0.047941148281 0.046475257725 0.054078422487 0.049129966646 0.059661503881 0.068543560803
          0.065306007862 0.047159019858 0.045964121819 0.046584386379 0.045694123954 0.050472013652
          0.055203184485 0.057304345071 0.046830691397 0.046081308275 0.045020125806 0.045220434666
          0.046069838107 0.046431023628 0.045702412724 0.050827428699 0.056311894208 0.044823940843
          0.048600126058 0.016995035112 -0.0014853854664 0.08151999861 0.076482973993 0.084266319871
          0.049456089735 0.046179566532 0.047313213348 0.04973320663 0.048784315586 0.053942039609
          0.059030842036 0.066416554153 0.049254149199 0.044657185674 0.047171074897 0.047744095325
          0.047270286828 0.050244498998 0.046798732132 0.046878613532 0.046808987856 0.046896457672
          0.04702629894 0.051869489253 0.04856063053 0.048092186451 0.047038786113 0.04490563646
          0.04568875581 0.045976277441 0.047559279948 0.046427194029 0.053989898413 0.049158632755
          0.059398852289 0.068216718733 0.065444745123 0.047593276948 0.046220518649 0.046502791345
          0.045460853726 0.050367604941 0.055111207068 0.056948106736 0.046823009849 0.045765250921
          0.044933736324 0.045737277716 0.045040518045 0.046108052135 0.045666836202 0.050844982266
          0.056457396597 0.044700711966 0.048450097442 0.016751561314 0.01504388731 0.084213554859
          0.078744716942 0.085349835455 0.077536612749 0.044060751796 0.045908004045 0.047723971307
          0.046646181494 0.046704445034 0.048412013799 0.049711409956 0.051637426019 0.057635236531
          0.063790284097 0.075911685824 0.048970662057 0.047610811889 0.046285551041 0.049445211887
          0.046781707555 0.047038890421 0.044087439775 0.045971740037 0.047520183027 0.04972473532
          0.047902479768 0.046846263111 0.046691834927 0.046111121774 0.048098366708 0.046223782003
          0.046667225659 0.052790034562 0.050308424979 0.063023030758 0.057427998632 0.069147676229
          0.067575342953 0.068430244923 0.0470938012 0.045308038592 0.046653434634 0.049326509237
          0.0565155074 0.045927941799 0.046118725091 0.045943707228 0.045718934387 0.044531788677
          0.047534342855 0.054407153279 0.060082037002 0.060483183712 0.044849000871 0.045674864203
          0.048262987286 0.053058404475 0.044537458569 0.044775754213 0.010788630694 0.025525841862
          0.015914160758 0.0338624008 0.051647044718 0.037700999528 0.075466103852 0.010937292129
          0.015385220759 0.016139471903 0.011432150379 0.094981499016 0.052459783852 0.035813894123
          0.019070221111 0.025631451979 0.031006935984 0.022584300488 0.044843625277 0.02521735616
          0.03592999652 0.030555630103 -0.00086806004401 -0.00046449789079 0.002010258846 -7.0131645771e-05
          0.0005611103843 0.00014721634216 0.00016290345229 -0.00062962889206 -0.0014590185601 -0.0024444842711
          0.012741892599 0.024783777073 0.03618491441 0.050909679383 0.07455701381 0.016014376655
          0.013396366499 0.01473676879 0.016433255747 0.012390240096 0.09690490365 0.051156904548
          0.035665724427 0.025424795225 0.031568635255 0.023048205301 0.043411817402 0.023933816701
          0.032842420042 -0.003018772928 0.00029455378535 0.0013854728313 -0.0012597733876 -6.0620193835e-05
          -3.0575032724e-05 3.9639518945e-05 -0.0026838858612 -0.00048644942581 -0.0021259828936 0.012577241287
          0.027631463483 0.017996497452 0.041298475116 0.052977461368 0.083506993949 0.013473063707
          0.01518325787 0.015813101083 0.011980159208 0.097704105079 0.052150182426 0.03586339578
          0.025594789535 0.03498326242 0.024220375344 0.046060234308 0.024524413049 0.033355690539
          -0.00089454773115 -0.0016634739004 0.0006280997768 6.3070496253e-05 -0.00087909499416 0.00013876233425
          0.00015513927792 -0.0026721174363 -0.0010604116833 -0.0016354266554 4.0339662519e-05 -0.055538102984
          -0.043517071754 0.032067604363 0.023824289441 0.032777503133 0.024136858061 0.0249429252
          0.033041868359 0.024170441553 0.032626476139 0.031994998455 0.023890178651 0.032037366182
          0.023807918653 0.024219207466 0.032869689167 0.024708895013 0.034028358757 -0.0039382693358
          0.033746831119 0.024616613984 0.033072762191 0.024298984557 0.024066289887 0.03294710815
          0.024392317981 0.033383313566 -0.010114644654 -0.006559133064 -0.01092515979 -0.0053248880431
          -0.016353536397 -0.0032717243303 -0.0060323220678 -0.016606068239 -0.0045300503261 -0.0074616624042
          -0.01085190475 -0.01997070387 -0.0094763012603 -0.0094529567286 0.0024721643422 -0.023220622912
          -0.0095777381212 -0.025218825787 -0.028576355428 -0.030285088345 -0.027282929048 -0.047998771071
          -0.050656761974 -0.068462073803 -0.046505186707 -0.040071237832 -0.043156977743 -0.062495574355
          -0.0482792072 -0.046929005533 -0.051280584186 -0.040587745607 -0.048996608704 -0.044064708054
          -0.046393748373 -0.059726469219 -0.055321827531 -0.046583440155 -0.044077135623 -0.056417286396
          -0.050611302257 -0.048362195492 -0.037866778672 -0.046852305532 -0.030672036111 -0.041035935283
          -0.040392942727 -0.047183524817 -0.03452552855 -0.033810511231 -0.0073392088525 -0.029972583055
          -0.014250111766 -0.013000961393 -0.02748404257 -0.010318438523 -0.012345536612 -0.014874649234
          -0.011028164998 -0.016219802201 -0.029432641342 -0.0083372024819 -0.026391025633 -0.012808362022
          -0.02755735442 -0.028386902064 -0.010761273094 -0.010923382826 -0.004482078366 -0.0086990138516
          -0.0053940736689 -0.0044354749843 -0.0068567963317 -0.016232246533 -0.01507438533 0.085584148765
          0.087339930236 0.085418842733 0.077169306576 0.084449991584 0.086552932858 0.055714320391
          0.058320954442 0.051451988518 0.049560945481 0.038994863629 0.041199494153 0.051443312317
          0.047413360327 0.038122273982 0.049449730664 0.037773106247 0.040826495737 0.055879931897
          0.039092104882 0.040796648711 0.03871961683 0.009908256121 0.0052875909023 0.0065707755275
          0.0057400483638 0.0050616022199 -0.014538970776 0.010224453174 -0.012490526773 -0.015671582893
          0.00901441928 -0.014391929843 -0.0021651978604 0.036417879164 0.037865038961 0.007521525491
          0.023105170578 0.023732881993 0.01569006592 0.023407399654 0.023470588028 0.018711294979
          0.039748199284 0.034407380968 0.029877269641 0.028327921405 0.00095131027047 0.00090682122391
          -0.00049238698557 0.0032768761739 0.0004289522185 0.0021779413801 0.0017475126078 0.016238182783
          0.020751815289 0.020457902923 0.014862472191 0.019203778356 0.021528244019 0.020872106776
          0.017747487873 0.017651438713 0.020689193159 0.020529385656 0.017721297219 0.022309627384
          0.022021587938 0.015704834834 0.015942795202 0.020461678505 0.016423484311 -0.0054381317459
          -0.0034058876336 -0.00059411861002 0.0027771128807 -0.0045885266736 -0.0027168910019 0.015343217179
          0.016328010708 0.023731276393 0.02109310776 0.01605929248 0.020977659151 0.020347030833
          -0.015277625993 0.0059769628569 0.078476205468 0.076868325472 0.004687116947 0.087090298533
          0.054857049137 0.077405326068 0.076499320567 -0.0021444931626 -0.0075244391337 -0.015013241209
          -0.013492101803 -0.015808915719 -0.0099916309118 -0.005413713865 0.095393918455 0.0015920387814
          0.03827033937 0.096196427941 -0.0023505180143 0.094825275242 0.096448324621 -0.014085607603
          0.095936819911 0.090503923595 0.09350027144 0.095689475536 0.093965090811 0.096076235175
          -0.021337570623 -0.012699163519 -0.025904871523 -0.035353444517 -0.017657412216 -0.00854062289
          -0.031351402402 -0.031351402402 -0.042384099215 -0.042384099215 -0.027385180816 -0.027385180816
          -0.048172276467 -0.048172276467 -0.039778318256 -0.039778318256 -0.04499784112 -0.04499784112
          -0.0017160158604 0.069476418197 0.079078018665 0.067760154605 -0.010885505937 -0.053455226123
          -0.059317260981 -0.03641647473 -0.0036570678931 -0.0022666095756 -0.029860753566 -0.057474128902
          0.00079529802315 0.020466228947 0.024071807042 0.018845332786 0.018459927291 0.021699246019
          0.02545822598 0.020046260208 0.024082029238 0.02045096457 0.019955392927 0.018469089642
          0.069745726883 0.10164913535 0.086677648127 0.090327426791 0.07905703783 0.026179064065
          -0.00034181037336 -0.00012172579591 0.024490248412 0.079359933734 0.1014900431 0.1051710844
          0.12318982929 0.12335522473 0.11392233521 0.067677378654 0.0095812045038 -0.069115199149
          -0.060694407672 -0.056462939829 -0.068196676672 -0.0030400317628 -0.013258133084 -0.014529567212
          -0.0040764580481 0.049380790442 0.051075533032 0.028960889205 0.057126820087 0.044362556189
          0.040109407157 -0.01093665231 -0.01062064711 -0.0129036773 -0.012248025276 0.045266263187
          0.049785975367 0.0086084427312 0.064125224948 -0.067271694541 -0.063514724374 -0.062876001
          -0.059318553656 0.027025008574 0.087123453617 0.081956669688 0.02960168384 0.084867104888
          0.078532531857 0.032363843173 0.091146603227 0.081226669252 0.082170516253 0.10363470763
          0.093645334244 0.082156643271 0.085972711444 0.10226434469 0.085801139474 0.069945774972
          0.086969263852 0.10243792832 0.094007566571 0.10032390058 0.1360809803 0.025598734617
          0.02174365893 0.022425716743 0.019814280793 0.021276598796 0.08400374651 0.069334618747
          -0.00087296304991 0.0031440979801 0.047616831958 0.10766460001 0.11771991104 0.11952029914
          0.11988338828 0.11088953912 0.093968629837 0.046258680522 0.0028963154182 -0.00078583805589
          0.0089308926836 0.064867071807 0.097650557756 0.090663142502 0.024373745546 0.02771351859
          0.027807990089 0.021896744147 0.091351985931 0.13488414884 0.020612604916 0.025034422055
          0.02356954664 0.023376449943 0.02335154824 0.020474059507 0.019687453285 0.087772674859
          0.07810728997 0.080872215331 0.075012750924 0.022005682811 -0.014242812991 0.037452977151
          0.050618320704 0.028747985139 0.017924692482 0.0028785348404 0.013058741577 -0.0013887578389
          0.0090444469824 -0.007737216074 0.04760376364 0.029428476468 0.01644949615 0.035914085805
          0.037462390959 0.030929971486 0.044198445976 0.027678865939 0.028460891917 0.038660328835
          0.035307843238 0.038292005658 0.044503904879 0.036437653005 0.043645374477 0.035511542112
          0.030763156712 0.03989520669 0.031742341816 0.043543316424 0.039968259633 0.035738926381
          0.040674723685 0.03082222864 0.044850125909 0.038997281343 0.039252139628 0.040062829852
          0.038440097123 0.032777901739 0.041229642928 0.027890695259 0.042575832456 0.03568021208
          0.052635844797 0.041731700301 0.035601597279 0.038820441812 0.043153688312 0.039334453642
          0.027159143239 0.034717060626 0.039233528078 0.04441774264 0.038123205304 0.040480609983
          0.036038827151 0.03663700819 0.042898952961 0.020801190287 0.038290563971 0.040746260434
          0.036126006395 0.0390140526 0.036311976612 0.042461454868 0.039951700717 0.041389234364
          0.035814650357 -0.00031533802394 0.00031961590867 0.00082038954133 0.00081475847401 0.00021429669869
          0.00043009215733 0.072408914566 0.050484556705 0.051204573363 0.048868350685 0.050183743238
          0.04919013381 0.050774328411 0.057326775044 0.04381275177 0.051466535777 0.059712268412
          0.076309926808 -0.0032525141723 -0.0031840845477 0.0009385018493 0.00013805493654 -0.00058607925894
          0.0004525189288 -0.0012914546533 -0.00025997130433 -0.0023727100343 0.075515821576 0.052424684167
          0.053575441241 0.048156276345 0.048643641174 0.04808133468 -0.04102826491 -0.061594177037
          -0.061414960772 -0.059897828847 -0.054923411459 -0.043223634362 -0.011707718484 -0.00031063449569
          0.00095601862995 0.0007923875819 0.0061439997517 0.0012405237649 -0.00011985011224 0.0003986323718
          -0.00034456566209 0.001324295532 0.0064378920943 -0.047131050378 -0.0049457401037 -0.045097343624
          -0.0031842468306 -0.04637305066 -0.034191742539 -0.035413865 -0.05430797115 0.056419707835
          0.045693218708 0.046206120402 0.050514791161 0.056200385094 0.060483269393 0.06754847616
          0.073161549866 0.087368875742 0.052544031292 0.04431727156 0.045504063368 0.050287820399
          0.055191449821 0.060469798744 0.068162091076 0.08185248822 -0.035594545305 -0.037228163332
          -0.035654801875 -0.055168699473 0.056098237634 0.046043302864 0.046609163284 0.050654396415
          0.056319586933 0.060482922941 0.067617848516 0.072935350239 0.087383896112 0.076152563095
          0.059250909835 0.052656359971 0.046645823866 0.06050574407 0.053686711937 0.058965966105
          0.06173716858 0.047225736082 0.051724769175 0.059269838035 0.075737334788 0.056464903057
          0.045941740274 0.046203769743 0.050431769341 0.055653173476 0.060480773449 0.067492298782
          0.081194706261 -0.049674846232 -0.034835103899 -0.033039379865 -0.052076183259 0.056412756443
          0.047105129808 0.04653237015 0.051122765988 0.055716987699 0.060388807207 0.067587003112
          0.080039396882 0.053649779409 0.031941581517 0.045298743993 0.034613005817 0.054745581001
          0.051928862929 0.074754297733 0.055452037603 0.046065870672 0.045877236873 0.050417564809
          0.055252112448 0.060270220041 0.068073377013 0.080821663141 0.019172225147 0.0095175337046
          0.011860567145 0.016846559942 0.025028534234 0.018229799345 0.027408113703 0.041892115027
          0.052042353898 0.063672676682 0.098119474947 0.15498200059 0.11292935908 0.06491921097
          0.052086815238 0.0417525433 0.028449248523 0.016463086009 0.024303799495 0.018304292113
          0.012235588394 0.010887417011 0.017369676381 -0.018643828109 -0.0010774331167 -0.0053653186187
          -0.031362134963 -0.051916651428 -0.056574016809 -0.06025608629 -0.065624944866 -0.017371965572
          -0.046251092106 -0.059703789651 -0.064681485295 -0.072795905173 -0.068554319441 -0.068350285292
          -0.060658149421 -0.047988843173 0.01767975837 0.0093216998503 0.015226442367 0.019853562117
          -0.0023678606376 -0.001407556003 0.001009533531 -0.00039412576007 -0.00029362106579 0.0012985597132
          0.00074841373134 -0.002743194811 -0.00060107553145 -0.012025719509 -0.013185017742 0.00059596041683
          -0.016593009233 0.018229931593 0.0094971098006 0.0099551817402 0.016404755414 0.025235554203
          0.017459766939 0.027726767585 0.041076716036 0.052302502096 0.064850091934 0.093435995281
          0.15919391811 0.11544243246 0.065785244107 0.051396898925 0.042061433196 0.027801662683
          0.017850702628 0.026015015319 0.020408898592 0.016616690904 0.0091455457732 0.021102655679
          0.0066193193197 0.00092432060046 0.00053920008941 -1.0292164916e-05 0.0002901130938 -0.0026855072938
          0.0070304688998 0.025245366618 0.017911182716 0.028184115887 0.041968885809 0.052728693932
          0.065111652017 0.10164802521 0.14799754322 0.11633260548 0.065266624093 0.051384497434
          0.042057868093 0.027578921989 0.017375113443 0.025250550359 0.018531769514 0.015467665158
          0.0093546900898 0.02019174397 0.00062900257763 0.00056621065596 -0.0018759119557 -0.0013318601996
          -1.6867745217e-05 0.0010738270357 0.0019875089638 0.0012652430451 0.00097336352337 0.013046816923
          0.025248298422 0.052382368594 0.039645116776 0.064802549779 0.062689363956 0.062839172781
          0.06895237416 0.069203928113 0.066223412752 0.068116404116 0.069984801114 0.069716282189
          0.073305167258 0.05334475264 0.064204871655 0.025127811357 0.041681949049 0.0027697365731
          0.0042435857467 0.00081802712521 -0.00024922497687 -0.00044911800069 0.0034092057031 0.0013448535465
          0.0032147418242 0.024094654247 0.068599432707 0.067697174847 0.073604635894 0.062127605081
          0.069671481848 0.060409039259 0.061105195433 -0.04605826363 -0.012743324973 -0.018558228388
          0.0034383835737 -0.051859114319 -0.058747626841 -0.044798448682 -0.050730966032 -0.040488686413
          -0.044124353677 -0.015007415786 -0.0042346082628 -0.014052503742 -0.0042623635381 -0.0084390630946
          -0.015854449943 -0.0088170990348 -0.0064555513673 -0.01766397059 -0.025858327746 -0.02130135335
          -0.019317943603 -0.0077307885513 -0.013771293685 -0.02757999301 -0.015148672275 -0.026480743662
          -0.022942159325 -0.01121799089 -0.0042512379587 -0.015517693944 -0.046640351415 -0.0063242367469
          -0.01702910848 -0.0021480738651 -0.0083277542144 -0.011127837002 -0.0053098583594 -0.0072755590081
          -0.008501464501 -0.045976120979 -0.013937400654 -0.017912801355 -0.055020555854 -0.041176382452
          -0.055420026183 -0.042777102441 -0.018483482301 -0.011129655875 -0.011556357145 -0.014174464159
          -0.05550795421 -0.02435512282 -0.022897480056 -0.013715744019 -0.025509783998 -0.015120174736
          -0.01175702922 -0.024827957153 -0.020696332678 -0.0056502334774 -0.014353632927 0.069599099457
          -0.0096126962453 0.076145425439 0.071350082755 0.070231936872 -0.01722548902 0.077266454697
          -0.029973337427 -0.019516246393 0.032866276801 -0.015540106222 0.089987076819 0.082297682762
          0.080066122115 0.088578939438 0.057830676436 0.048570387065 0.045921634883 0.045783806592
          0.046573873609 0.047204885632 0.049313291907 0.050384160131 0.053506501019 0.055026154965
          0.05796347186 0.0607634224 0.064856365323 0.076173946261 0.080752432346 0.055879633874
          0.057459935546 0.056528240442 0.053181327879 0.051961939782 0.053397886455 0.056016955525
          0.054300453514 0.052183125168 0.054757695645 0.053424634039 0.054242193699 0.05567035079
          0.05531898886 0.05636856705 0.05370727554 0.051247052848 0.051256865263 0.051739647985
          0.055136840791 0.059780035168 0.047381937504 0.045060116798 0.046112496406 0.045135270804
          0.048712801188 0.046485446393 0.051987763494 0.048793051392 0.058282636106 0.054651733488
          0.066318802536 0.060423191637 0.078060999513 0.079436607659 0.082158707082 0.080749742687
          0.045772492886 0.046714365482 0.046254739165 0.048289667815 0.048139624298 0.048872549087
          0.052088208497 0.051472682506 0.056209087372 0.062356267124 0.06835680455 0.075225748122
          0.045990340412 0.044603828341 0.049543634057 0.048096470535 0.047862198204 0.053808677942
          0.04741435498 0.04661064595 0.051625926048 0.047246955335 0.047252681106 0.051470275968
          0.051161631942 0.050278175622 0.052292425185 0.050128828734 0.049690626562 0.052428532392
          0.047632690519 0.047210004181 0.050083585083 0.045649763197 0.046333033592 0.045436073095
          0.046022593975 0.04818309471 0.045469220728 0.051615443081 0.048843085766 0.047027144581
          0.056897997856 0.051184419543 0.070579566061 0.062986947596 0.077075019479 0.070328906178
          0.072533808649 0.044644590467 0.046060431749 0.047068715096 0.046639449894 0.047043900937
          0.04858122021 0.047749571502 0.049260731786 0.05278577283 0.054531104863 0.057293463498
          0.061639599502 0.044287193567 0.044521074742 0.045784238726 0.047418769449 0.046422637999
          0.046572264284 0.045720927417 0.04611813277 0.045382462442 0.04564255476 0.047025874257
          0.046907465905 0.046647392213 0.0500465855 0.046852067113 0.046715695411 0.04975951463
          0.04831802845 0.046654548496 0.046928212047 0.046355903149 0.046275321394 0.044967543334
          0.046130314469 0.045838646591 0.046161707491 0.047270134091 0.045873161405 0.046888485551
          0.046606484801 0.055298604071 0.052803423256 0.049708362669 0.061716772616 0.058276969939
          0.064965881407 0.070873655379 0.067289419472 0.046454310417 0.046143837273 0.04551583156
          0.047140892595 0.047844186425 0.052586462349 0.055835865438 0.062620125711 0.045291684568
          0.045228991657 0.046504840255 0.04538102448 0.046149946749 0.047912176698 0.045112852007
          0.052791528404 0.060272276402 0.061456799507 0.045404091477 0.046845335513 0.049360800534
          0.051347926259 0.052851825953 0.044327795506 0.04400183633 0.044760264456 0.044359426945
          0.045113988221 0.049794111401 0.046783417463 0.05228145048 0.056400615722 0.045197039843
          0.046281721443 0.045279350132 -0.0046052392572 -0.022773146629 0.068276681006 -0.0028063990176
          0.074290707707 0.070211738348 0.065526351333 -0.026975167915 0.04848478362 -0.03141368553
          -0.010947011411 0.033018238842 -0.01524561923 0.089841514826 0.081725142896 0.085756734014
          0.086944140494 0.058360993862 0.048805397004 0.046241115779 0.046150974929 0.047024827451
          0.047521237284 0.049506835639 0.050478026271 0.053515296429 0.054996814579 0.057937927544
          0.06069868058 0.06489559263 0.07701832056 0.079900167882 0.057659223676 0.060478150845
          0.056220751256 0.052845098078 0.052288688719 0.051992561668 0.056702617556 0.056964527816
          0.054352417588 0.051824931055 0.052732761949 0.052110798657 0.051518440247 0.054550331086
          0.0572405532 0.05628721416 0.05240739882 0.051845751703 0.052139122039 0.055511321872
          0.060557965189 0.04853932932 0.04592563957 0.046543583274 0.045666765422 0.048737708479
          0.046726558357 0.051567338407 0.048815242946 0.058128736913 0.054513812065 0.066072769463
          0.06068687886 0.076995290816 0.079911746085 0.081026926637 0.081104129553 0.046154972166
          0.047054145485 0.046998813748 0.048464324325 0.048152137548 0.048766423017 0.051993139088
          0.051409721375 0.056145183742 0.062203601003 0.068700894713 0.075195290148 0.046468928456
          0.045785702765 0.050694737583 0.047206040472 0.047015830874 0.055062286556 0.048797085881
          0.048258390278 0.050739843398 0.04641764611 0.046755652875 0.051524382085 0.046897452325
          0.047260191292 0.051629107445 0.048590984195 0.050742574036 0.054747227579 0.04760324955
          0.047873869538 0.05107294023 0.046089492738 0.046693466604 0.04581271112 0.046276673675
          0.047796107829 0.045292992145 0.052572276443 0.049132138491 0.046830371022 0.056796643883