<?xml version="1.0"?>
<VTKFile type="UnstructuredGrid" version="0.1" byte_order="LittleEndian" header_type="UInt32" compressor="vtkZLibDataCompressor">
  <UnstructuredGrid>
    <Piece NumberOfPoints="24911" NumberOfCells="12930">
      <PointData Scalars="Spannung:Lotrechte Spannung ZZ">
        <DataArray type="Float32" Name="Spannung:Lotrechte Spannung ZZ" format="ascii" RangeMin="-0.34507787228" RangeMax="1.4174458981">
          0.30356281996 0.30356281996 0.79342806339 0.92675822973 0.32182073593 0.32182073593
          0.021240910515 0.028270605952 0.23394683003 0.00036988948705 0.00082537258277 0.22794103622
          0.038811959326 0.06324096024 0.21203505993 0.13850915432 0.13850915432 0.12906751037
          -0.045389551669 -0.030005974695 0.12664555013 0.36212098598 0.35838297009 0.13283976912
          -0.028450785205 -0.048824042082 0.14584007859 0.14584007859 -0.067468091846 -0.13113829494
          -0.08595315367 0.13312830031 0.76195961237 0.24740298092 0.00080090627307 0.00040371829527
          0.21997846663 0.017637660727 0.037017833441 0.26075980067 0.00038469029823 0.00037636476918
          -0.00019046028319 0.00072871637531 0.31433182955 -0.00013102896628 0.0004665289307 0.11978883296
          -0.041766554117 -0.00016754874378 0.00070219580084 0.35665658116 -0.039994306862 0.13776804507
          0.33253204823 0.00074195448542 -0.00014865535195 0.34514555335 0.00050674733939 -0.00013571734598
          0.00075502716936 -7.9842560808e-05 -0.13350987434 0.61021673679 1.0168710947 0.74762219191
          0.25483876467 0.21931736171 0.06769528985 0.12506434321 0.1247670278 0.13224764168
          0.14593715966 0.15008848906 0.30748292804 0.28022402525 0.22659619153 0.23374785483
          0.26643306017 0.2774887085 0.31711503863 0.14565141499 0.14857041836 0.13716724515
          0.1203372702 0.095429956913 0.066097937524 0.79891180992 1.1423835754 0.085205577314
          0.22957807779 0.22441770136 0.11524832994 0.13038611412 0.14382188022 0.13583672047
          0.21538256109 0.082974299788 0.22170895338 0.23740059137 0.096360743046 0.088398613036
          0.11621126533 0.12936043739 0.14297360182 0.1482899487 0.10544463247 0.096597030759
          0.20333878696 0.14686413109 0.1474160105 0.1320733577 0.11637023836 0.33385500312
          0.3084115684 0.28260368109 0.28993558884 0.27025896311 0.27822342515 0.29243841767
          0.31456929445 0.3305888176 0.3232845962 0.23213669658 0.25965455174 0.27596452832
          0.30367490649 1.3642790318 1.4174458981 1.1993566751 0.13395565748 0.2056786865
          0.31450951099 0.27896627784 0.26861742139 0.31569594145 0.022413223982 0.021052705124
          0.051764555275 0.031071770936 0.073140993714 -0.016835821792 0.021192193031 0.035633862019
          0.035770300776 0.099170140922 0.25554129481 0.31858953834 0.30835253 0.26248592138
          0.13001635671 0.12819504738 0.17368879914 0.12456022948 0.15085741878 0.14277301729
          0.12908647954 0.11768803746 0.10606800765 0.040268316865 0.10410638154 0.060742322356
          0.018557721749 0.10806323588 0.12130718678 0.11883542687 0.12782205641 0.17224371433
          0.17968413234 0.14497661591 0.18637621403 0.21758332849 0.16107800603 0.14423453808
          0.12457034737 0.12048567086 0.113800928 0.10766535997 0.064677238464 0.10819692165
          0.036252692342 0.05760441348 -0.0049741440453 0.035166781396 0.041550137103 -0.0016829740489
          0.02168680355 0.047568108886 0.10622319579 0.089619427919 0.076856561005 0.053479205817
          0.047605775297 0.11693844944 0.12530435622 0.1394290626 0.12347643822 0.13444663584
          0.1318539083 0.13056091964 0.12574003637 0.12513796985 0.038119584322 0.023851290345
          0.019686102867 0.28222876787 0.13508890569 0.28487557173 0.25191286206 0.12055169791
          0.22828601301 0.30657106638 0.22334970534 0.11314495653 0.24647861719 0.27362269163
          0.15104293823 0.26087653637 0.14149312675 0.25904685259 0.16383324564 0.0096530914307
          0.040345732123 0.024288553745 0.065354198217 0.076304242015 0.10769136995 0.1001836583
          0.11832214147 0.11117716134 0.11949459463 0.1312661618 0.22897060215 0.22812087834
          0.13804484904 0.15487484634 0.19168482721 0.18467797339 0.16453917325 0.12556768954
          0.12145560235 0.11193355918 0.11894585192 0.10862319171 0.042565025389 0.1182834506
          0.031208874658 0.092403836548 0.04427279532 0.10765114427 0.1145631969 0.1117625013
          0.11981789768 0.13160680234 0.16994397342 0.18290056288 0.22306469083 0.17934028804
          0.17754475772 0.14157710969 0.14844855666 0.13146646321 0.1212541759 0.11242046952
          0.10753402114 0.12192661315 0.11252713948 -0.01180371549 0.0079847704619 0.047539226711
          0.063549295068 0.087570123374 0.094114460051 0.01421963051 0.051255919039 0.046977173537
          0.077526561916 0.10484565794 0.097530685365 0.11758254468 0.11288725585 0.12937134504
          0.12333201617 0.13507421315 0.13223522902 0.13794364035 0.12891803682 0.11580633372
          0.1259007901 0.097670927644 0.10797614604 0.031677592546 0.093904428184 0.060744103044
          0.041883897036 0.05432216078 0.10601402819 0.11791355163 0.11947333813 0.11656665057
          0.13095352054 0.13391016424 0.1295915693 0.13331852853 0.13090735674 0.11861491948
          0.12326303869 0.02519749105 0.10109199584 0.11979560554 0.12564516068 0.16294674575
          0.13065092266 0.091210268438 0.056998517364 0.010030701756 -0.02093084529 0.031525988132
          0.021318862215 0.01181701012 0.0071401521564 0.0048205857165 0.013275616802 0.11716772616
          0.073502570391 0.054674293846 0.030613079667 0.012658106163 0.0064492737874 0.0039518885314
          0.11773304641 0.073843307793 0.054187763482 0.030470892787 0.012066172436 0.0064321546815
          0.0039267782122 0.11319226027 0.073060885072 0.053948462009 0.030297994614 0.012163937092
          0.006483964622 0.0037742890418 0.0039047787432 0.00739364326 0.013369526714 0.029260070994
          0.050078876317 0.071283012629 0.11691177636 0.0038122164551 0.0074101882055 0.013446249068
          0.029401013628 0.050093621016 0.073732599616 0.1184001714 0.0037635897752 0.0068060541525
          0.017730727792 0.027694540098 0.050521947443 0.07318045944 0.084137253463 0.04404130578
          0.18348397315 0.18008711934 0.11814758182 0.027665298432 0.14629873633 0.1759749651
          0.17987495661 0.32499268651 0.18175032735 0.21535722911 0.17708531022 0.15833623707
          0.122783117 0.088188059628 0.059373289347 0.014149659313 0.005085689947 0.028377976269
          0.019948359579 0.012304970063 0.0071577047929 0.0048770331778 0.18372753263 0.15949390829
          0.12252075225 0.084083452821 0.053460761905 0.01212729793 0.0044169537723 0.027277069166
          0.020925259218 0.012382327579 0.0071629392914 0.0048193680122 0.1596827209 0.17949473858
          0.10758168995 0.00050952815218 0.16151621938 0.17187204957 0.16791036725 0.19072377682
          0.17744150758 0.17665880919 0.16478653252 0.16724811494 0.17472752929 0.11442974955
          0.0014534367947 0.16174946725 0.18111239374 0.18173070252 0.1870201081 0.1739770174
          0.18494993448 0.15084591508 -0.0031259097159 0.00048770493595 0.00082718336489 0.00072447373532
          0.00078323698835 0.00093242962612 0.00088076421525 0.00077186524868 0.00088371848688 0.00084553996567
          0.0011097587412 0.00096995889908 0.00075001385994 0.0007215666119 0.0011356392642 0.00093170336913
          0.0008049091557 0.00081367348321 0.00091696938034 0.00095543824136 0.00077314174268 0.00074889219832
          0.00079818465747 0.00081353838323 0.0008207372739 0.00069991976488 0.00073944748146 0.00077873945702
          0.0007302032318 0.00072557793465 0.00075995741645 0.00079230748815 0.00079358689254 0.00070418213727
          0.0007038602489 0.00086265220307 0.00076000200352 0.00078066665446 0.00083394325338 0.0006961171166
          0.00085796316853 0.00073063507443 0.00072508788435 0.00074372359086 0.0008224399644 0.00083726109006
          0.00079548452049 0.00075153255602 0.00080001802417 0.00077568163397 0.0008907673764 0.00079451623606
          0.00086256198119 0.00088504544692 0.0011039526435 0.00098451203667 0.00070144218626 0.00077799917199
          0.00086042640032 0.0007212345954 0.00073267018888 0.00077062961645 0.00091278960463 0.00072664971231
          0.00078560417751 0.00091256352607 0.00098700681701 0.00071862078039 0.00080347806215 0.00078079750529
          0.00074349879287 0.00093842629576 0.0007981499657 0.00087440147763 0.00097529153572 0.00079724233365
          0.00096764304908 0.00076796265785 0.0007973217289 0.00058306928258 0.003386217868 0.00059232872445
          0.0008239087183 0.0010456745513 0.00068804784678 0.0010513127781 0.00092816277174 0.00069853081368
          0.0010341282468 0.0007700965507 0.00076450174674 0.00076744472608 0.00074494612636 0.00078273291001
          0.00071552139707 0.00073536543641 0.0009479484288 0.00082160922466 0.000931202434 0.00090980122332
          0.00078945886344 0.00078157288954 0.00087488518329 0.00085224973736 0.00083443481708 0.00080554449232
          0.00076756789349 0.0007671933854 0.0008377826889 0.00074570527067 0.00087267009076 0.00098704837728
          0.00076687167166 0.0008880168898 0.00082626228686 0.00079017056851 0.0007195273065 0.00076886132592
          0.00097089569317 0.00098151376005 0.00081798335304 0.00079198525054 0.00087065383559 0.00097736925818
          0.00075670972001 0.00065779127181 0.0012127542868 0.0010118751088 0.0007410076214 0.00063825777033
          0.0010811046232 0.00084383442299 0.00072145735612 0.00087307498325 0.00081852596486 0.00069864181569
          0.00073710252764 0.00080208561849 0.00099178310484 0.00081777269952 0.00076267693657 0.00075231702067
          0.00091942131985 0.0010057289619 0.00077658821829 0.00090272806119 0.0010264238808 0.00091864966089
          0.00082150218077 0.00070780841634 0.0006621547509 0.0010849997634 0.00081221456639 0.00081553333439
          0.00097444048151 0.00077017524745 0.0010090701981 0.00063900277019 0.00080997869372 0.00037237841752
          0.0038413177244 0.0069851675071 0.012031679973 0.020311679691 0.028034128249 0.00051476701628
          0.01282887999 0.057273827493 0.088932923973 0.1247875765 0.13955672085 0.16148771346
          0.17759729922 0.00075370748527 0.00056240480626 0.00085764558753 0.00099886138923 0.001122935093
          0.0011701406911 0.0010045702802 0.00082987576025 0.00082847516751 0.00086594268214 0.00083248846931
          0.0010273781372 0.00080630253069 0.00082778988872 0.0007668962935 0.00092491152463 0.00084435759345
          0.001070238417 0.00092756864615 0.0008163365419 0.00082466402091 0.0010797515279 0.00095733592752
          0.00083644053666 0.00081776361912 0.00088036537636 0.00084552972112 0.00082445191219 0.00075952953193
          0.00090287445346 0.001001576311 0.00080902414629 0.00081378547475 0.00081125175348 0.00082668935647
          0.00083847902715 0.00078412884613 0.00074296910316 0.00074765871977 0.00078603427391 0.0007887626416
          0.00090146320872 0.0009350120672 0.00042403896805 0.0010612091282 0.00073632871499 0.00074504700024
          0.00081959343515 0.00082894932711 0.00078531261533 0.00068730395287 0.00080553541193 0.00084623909788
          0.0010775816627 0.0010074283928 0.00094923895085 0.00078783446224 0.00091769371647 0.0009968202794
          0.00093778257724 0.00076361710671 0.00081505870912 0.00080239755334 0.0008420246304 0.00057692051632
          0.0011902417755 0.00079121330054 0.00079853751231 0.00080027838703 0.00052535551367 0.0011893307092
          0.00089732086053 0.00078509695595 0.00086522271158 0.00079646153608 0.0009939763695 0.0007455056766
          0.00065678847022 0.00043166140676 0.0010677516693 0.0012688776478 0.0015351077309 0.0017457763897
          0.0013637703378 0.0017397501506 0.0016202048864 0.00098367792089 0.0011091700289 0.00087174540386
          0.0011672803666 0.00090893974993 0.0011536738602 0.0018457619008 0.0020744830836 0.001697834814
          0.0015763401752 0.0017575578531 0.001443233341 0.0014027726138 0.0013605909189 0.0017130714841
          0.0016031911364 0.001464892528 0.0017926872242 0.0021104228217 0.0020243236795 0.0020536524244
          0.0016927040415 0.0015000277199 0.0014111599885 0.0015991528053 0.0015791786136 0.0012960877502
          0.0014502651757 0.0017199883005 0.0016258987598 0.0012706882553 0.0014986605383 0.0015648598783
          0.0012175276643 0.0016301529249 0.0012870678911 0.0007909371634 0.0012618012261 0.0012260219082
          0.0014357108157 0.0017440955853 0.0015827567549 0.0011000892846 0.0013666233281 0.0015159898903
          0.0015348535962 0.0016008655075 0.001367809251 0.0018414068036 0.0017972240457 0.0016692377394
          0.0016826119972 0.0015241011279 0.0018472244265 0.0020423694514 0.0015998753952 0.0018988148076
          0.0021905354224 0.0023055591155 0.0019083041698 0.0015519221779 0.001914577093 0.0022284351289
          0.001740953885 0.0018767064903 0.0017318082973 0.0019321216969 0.0018285955302 0.00081006763503
          0.0013793047983 0.0014703213237 0.0012674141908 0.001122207148 0.0011359719792 0.0016072316794
          0.0018178260652 0.0012922865571 0.0016878810711 0.0017993700458 0.0018511436647 0.002151113702
          0.0015339350794 0.0011754650623 0.0009804291185 0.00095679314109 0.0020990567282 0.0019542856608
          0.0015095423441 0.0012357555097 0.0016244102735 0.0014768528054 0.0018523802282 0.002050756244
          0.0020234894473 0.0015005331952 0.0018816135125 0.0021250073332 0.0021939156577 0.0017995594535
          0.0012043487513 0.0010554015171 0.0016933378065 0.001794372336 0.0013564843684 0.00075632374501
          0.0015021902509 0.0016474109143 0.0013192461338 0.001843115082 0.0020058634691 0.0017146033933
          0.0015647499822 0.0010616565123 0.0015081249876 0.001556603238 0.0014677925501 0.00090837839525
          0.0015209628036 0.0018417253159 0.001899837167 0.0018994209822 0.0019690347835 0.0014813321177
          0.0017773644067 0.0018281072844 0.0019056570018 0.0018649821868 0.0019620487001 0.0019258111715
          0.0021502783056 0.0016016382724 0.0017454627668 0.0018616110319 0.0021471444052 0.0017616667319
          0.0019396602875 0.0015657567419 0.001312668086 0.0017495659413 0.002033052966 0.001778156613
          0.0019357096171 0.0017163887387 0.0017813285813 0.0019607662689 0.0023991209455 0.0022985055111
          0.0016612292966 0.0015305861598 0.0012914411491 0.0012375849765 0.0012651520083 0.0013484483352
          0.0018708881689 0.0019995712209 0.0017527900636 0.0018554868875 0.0014750579139 0.0017990630586
          0.0020871504676 0.0015634560259 0.00098574953154 0.0015965191415 0.0018990724348 0.0020284496713
          0.0018285996048 0.0016865211073 0.0020700613968 0.0020409706049 0.0013085113605 0.0014660099987
          0.001848114538 0.0019771719817 0.0015478528803 0.0015198522015 0.0012607147219 0.0018300529337
          0.001807028777 0.0014284938807 0.0017272965051 0.0018835361116 0.0017328367103 0.001520985039
          0.0020341407508 0.002306394279 0.0019136371557 0.0016079875641 0.0019266617019 0.001984753646
          0.0015868573682 0.0018309841398 0.0020259725861 0.0021400658879 0.0015169513645 0.001074248692
          0.0011403826065 0.0015368186869 0.0017458935035 0.0015119201271 0.0018996541621 0.0019779899158
          0.0014423711691 0.0016879288014 0.0017003576504 0.0014837034978 0.0017029537121 0.0018378217937
          0.0018806828884 0.0018834436778 0.0016042840434 0.0018902036827 0.0020674928091 0.0021225064993
          0.0016221876722 0.0017366115935 0.0015166208614 0.0014576428803 0.0017411622684 0.0014458529186
          0.001059721224 0.00088950339705 0.0015741055831 0.0016955045285 0.0011191336671 0.0013349492801
          0.0021914660465 0.0019508949481 0.00165662379 0.0014233274851 0.0011417196365 -0.00027066693292
          -0.00035937840585 -0.00043555969023 -0.00045497668907 -0.00053259910783 -0.00038310833042 -0.00052564777434
          -0.00041389054968 -0.00028345300234 -0.00030670838896 -0.00026062657707 -0.00034207591671 -0.00025498738978
          -0.00035750836832 -0.00049215194304 -0.00058969965903 -0.0004192533379 -0.00049556710292 -0.00046656478662
          -0.00038302424946 -0.00038894545287 -0.00040195297333 -0.00046483144979 -0.00044243779848 -0.00041364808567
          -0.00060100964038 -0.00067261373624 -0.00057410215959 -0.00060230464442 -0.00044375896687 -0.00047333969269
          -0.0004031965218 -0.00044914003229 -0.0004201172851 -0.00037780284765 -0.000443440862 -0.00042970923823
          -0.00044919189531 -0.00035260792356 -0.00045901135309 -0.00041535386117 -0.00043137077591 -0.00044730192167
          -0.00035143701825 -0.0002682521008 -0.0004335839767 -0.00037431454984 -0.00044182938291 -0.00045164342737
          -0.00043389029452 -0.00030087927007 -0.00044482049998 -0.00043869722867 -0.00050658412511 -0.00044101753156
          -0.00043497563456 -0.00055704766419 -0.0004782245669 -0.00048023666022 -0.00048691782285 -0.0003973870771
          -0.00062027614331 -0.00057680526515 -0.00043114408618 -0.00063367240364 -0.00073159491876 -0.0005691551487
          -0.00043895302224 -0.00045795904589 -0.00063349952688 -0.00066375773167 -0.00048334494932 -0.00055251381127
          -0.00040308380267 -0.00053571321769 -0.0005396604538 -0.00026172367507 -0.00046166300308 -0.00048703342327
          -0.00027087901253 -0.00041357325972 -0.00036423001438 -0.00048534455709 -0.00053644907894 -0.00035097976797
          -0.00047828044626 -0.00054597377311 -0.00060735555599 -0.00058905489277 -0.00028918913449 -0.00030927194166
          -0.00029021757655 -0.0003484680492 -0.00055555620929 -0.00044903188245 -0.00039007395389 -0.00046148416004
          -0.0004727873893 -0.00042640959146 -0.00056826585205 -0.00061892787926 -0.00053289852804 -0.00042582087917
          -0.00057585234754 -0.00069262145553 -0.00063375162426 -0.00050219282275 -0.00034516392043 -0.0003229319118
          -0.00049871078227 -0.00046495551942 -0.00039647164522 -0.00027053171652 -0.00052622635849 -0.00048981735017
          -0.00036595444544 -0.00057910737814 -0.00051191454986 -0.00045897983364 -0.00043818770791 -0.00032528970041
          -0.00045513224904 -0.00042589489021 -0.00039694109 -0.00025458217715 -0.00044429436093 -0.00053683458827
          -0.000509118021 -0.00064387364546 -0.00053497811314 -0.00042554794345 -0.00053174799541 -0.00050857453607
          -0.00053887278773 -0.00056886218954 -0.00057741324417 -0.0006175119197 -0.00058270309819 -0.00048501367564
          -0.00051543762675 -0.00063416460762 -0.00069054058986 -0.00042729492998 -0.0005511980853 -0.00040796032408
          -0.00042740203207 -0.00054363853997 -0.0006480194279 -0.00052528013475 -0.00057299545733 -0.00049350969493
          -0.00051464163698 -0.00063333299477 -0.00080985098612 -0.0006003161543 -0.00057828694116 -0.00041514352779
          -0.00033366816933 -0.00029289620579 -0.00041327113286 -0.00040528841782 -0.00055409938795 -0.00064724968979
          -0.00043124236981 -0.00057761010248 -0.00043995093438 -0.00062396837166 -0.00058855680982 -0.00035015676985
          -0.0003285598068 -0.0004680500424 -0.0006413331721 -0.00060419214424 -0.00050709408242 -0.00052547175437
          -0.0005962550058 -0.00052029144717 -0.00036963151069 -0.00050462555373 -0.0004989572335 -0.00057370873401
          -0.00047460221685 -0.00043214019388 -0.00039593290421 -0.00056298042182 -0.00048125666217 -0.00051730126143
          -0.00051784212701 -0.00051707110833 -0.00043391552754 -0.00045141321607 -0.00069552072091 -0.00060454424238
          -0.00045716576278 -0.00046096829465 -0.00064474728424 -0.00055074255215 -0.0004611647164 -0.0005161438603
          -0.00073281559162 -0.0005940743722 -0.00039857407683 -0.00031750189373 -0.00035630003549 -0.00050146260764
          -0.00048334704479 -0.00046408982598 -0.00061692600138 -0.00050818640739 -0.00041628966574 -0.00051102845464
          -0.00044673166121 -0.00045684710494 -0.0004548720317 -0.00053469522391 -0.00057234609267 -0.00052598660113
          -0.00047537189675 -0.00057353882585 -0.00067702657543 -0.00063412298914 -0.00048106213217 -0.00052711897297
          -0.00040642585373 -0.00042200280586 -0.00050029583508 -0.00037377313129 -0.00032189258491 -0.00024252774892
          -0.00045381966629 -0.00047305205953 -0.00035366450902 -0.00054525752785 -0.00063639471773 -0.00046126704547
          -0.00044232071377 -0.00046855121036 0.043212853372 0.03673479706 0.17269286513 0.1814417243
          0.0079840654507 0.12112329155 0.15667741001 0.15551505983 0.16935268044 0.18871940672
          0.17606426775 0.18288190663 0.17414954305 0.16946513951 0.0042075086385 0.0070681381039
          0.011334948242 0.020349616185 0.028623593971 -0.011979793198 0.0052537750453 0.050205402076
          0.084339231253 0.099749170244 0.11402893066 0.14099252224 0.16224721074 0.17757989466
          0.16578860581 0.18591722846 0.0067817391828 0.083324179053 0.13292460144 0.11000734568
          0.16079245508 0.15908332169 0.17423886061 0.16866640747 0.1869777292 0.17523884773
          0.17798522115 0.17177794874 0.16886132956 0.0041543794796 0.0069758705795 0.011765824631
          0.020218910649 0.028406247497 -0.0062347399071 0.007910949178 0.050187930465 0.08331155777
          0.10142279416 0.116928868 0.14005468786 0.16087305546 0.17413143814 0.17187055945
          0.17800369859 0.012837420218 0.072180040181 0.14150959253 0.10658660531 0.14773416519
          0.16991317272 0.1767051816 0.17268881202 0.1862617135 0.16474291682 0.17516949773
          0.16986875236 0.16226750612 0.17379300296 0.17002132535 0.05835724622 0.070653542876
          0.20498749614 0.4833907187 0.28470477462 0.30281406641 0.24343922734 0.41644018888
          0.18533441424 0.033829789609 0.031253628433 0.072007864714 0.16623309255 0.013783955015
          0.12711313367 0.21131055057 0.22549980879 0.20182077587 0.21571063995 0.173339203
          0.14342227578 0.10908020288 0.091142237186 0.063789911568 0.053457573056 0.02541632764
          0.016311887652 -0.0025033357088 -0.0015218934277 -0.00067375332583 0.023497417569 0.028632473201
          0.018770407885 0.011167258024 0.0068693100475 0.0027319798246 0.0048111616634 0.0061767664738
          0.0053338655271 0.0056357826106 0.0059269396588 0.0058416463435 0.0063083344139 0.0053695603274
          0.0051086382009 0.0056388285011 0.0049431240186 0.0052977381274 0.005229732953 0.0043727918528
          0.007379997056 0.0049274973571 0.0044972277246 0.0062659489922 0.0065048676915 0.0048903706484
          0.0062548355199 0.0058968449011 0.0052399835549 0.0054665296338 0.0055441190489 0.0050849588588
          0.0051330127753 0.0049071442336 0.0056914547458 0.0045806653798 0.005213139113 0.005209502764
          0.0052934540436 0.0050116139464 0.0048667564988 0.0056485803798 0.0048349821009 0.0052514472045
          0.0057720411569 0.0052331918851 0.005278903991 0.0052416333929 0.0044073890895 0.0057328683324
          0.0058881593868 0.004421189893 0.0061519187875 0.0047843325883 0.0052813077345 0.0053601497784
          0.0054061105475 0.0051530664787 0.0058902292512 0.0053728250787 0.005223903805 0.0052591669373
          0.0053640003316 0.0051977834664 0.0042659780011 0.0057609914802 0.0058551332913 0.004936338868
          0.0048660403118 0.0039031689521 0.0055785728619 0.0057590622455 0.0054910429753 0.0079848989844
          0.005930012092 0.008673556149 0.005631533917 0.0055257822387 0.005314163398 0.005673954729
          0.0061245588586 0.0069834203459 0.0053277132101 0.0077377432026 0.0054523572326 0.0056315185502
          0.0055342679843 0.0040392652154 0.0061584189534 0.010168090463 0.016422914341 0.027773205191
          0.027124132961 0.0085726175457 -0.0052673425525 -0.0032710216474 0.013675024733 0.024741901085
          0.048787109554 0.069018483162 0.086826637387 0.10808683187 0.1420340538 0.18668219447
          0.20557542145 0.22541816533 0.22257348895 0.1782926321 0.039059657604 0.24775779247
          0.24062392116 0.26046228409 0.2813989222 0.24468308687 0.24116127193 0.22462248802
          0.2084351331 0.16598178446 0.13772237301 0.12978754938 0.10780344158 0.08605953306
          0.064232796431 0.045782521367 0.029524309561 0.012746694498 0.0099737178534 -0.0050653698854
          -0.0097463428974 -0.0086899315938 0.0056900037453 0.020123912022 0.026732441038 0.025441553444
          0.021075479686 0.014957031235 0.010695354082 0.0088010495529 0.0097720818594 0.0081413639709
          0.0094225630164 0.011595828459 0.010692510754 0.011401720345 0.010442284867 0.012280930765
          0.0091239223257 0.0087798824534 0.0070088300854 0.010938716121 0.0096393926069 0.010552270338
          0.0072188223712 0.009565114975 0.0074190995656 0.0088863736019 0.013114800677 0.0093011474237
          0.011252884753 0.011740896851 0.0078334985301 0.0092642093077 0.010061569512 0.010343923233
          0.0098269954324 0.010979693383 0.0085973152891 0.010218729265 0.0095560578629 0.0088259214535
          0.0085156289861 0.0099563868716 0.0084409397095 0.009164808318 0.010825214908 0.010464902036
          0.0086789457127 0.0086027830839 0.0090285856277 0.010427478701 0.0082824071869 0.010190441273
          0.010829742998 0.009191035293 0.010679876432 0.0087476009503 0.010956996121 0.010816016234
          0.0089496541768 0.0084362477064 0.0095118312165 0.010480663739 0.0084838448092 0.01102908887
          0.010209204629 0.010207033716 0.011464470997 0.008861224167 0.010601011105 0.0092031080276
          0.010581287555 0.0086479913443 0.0064606079832 0.010780561715 0.010584427044 0.0062521714717
          0.0076454444788 0.0082935551181 0.0081850877032 0.0085177989677 0.010380019434 0.0096117043868
          0.0111013446 0.014400090091 0.0093742450699 0.010395254008 0.010553695261 0.0079896273091
          0.010878358036 0.012635990977 0.0087201772258 0.012133766897 0.0092074386775 0.0062233088538
          0.014731033705 0.021193603054 0.024922177196 0.027891565114 0.021542418748 0.006912894547
          -0.0019330802606 -0.0087447920814 -0.0041627776809 0.012469317764 0.012423815206 0.02927862294
          0.044467363507 0.063369013369 0.084237322211 0.11011940986 0.13615836203 0.13880160451
          0.16605620086 0.20398506522 0.22232888639 0.23443745077 0.2317084223 0.24373857677
          0.20679809153 0.19254001975 0.16758069396 0.13700652122 0.12874661386 0.10757063329
          0.081812947989 0.061517503113 0.045462682843 0.028743285686 0.012494442984 -0.0044704549946
          -0.0071642571129 -0.0061317589134 0.0031488935929 0.022807946429 0.02613770403 0.023557372391
          0.01848055236 0.019715681672 0.017870375887 0.014214360155 0.014344549738 0.017147386447
          0.019045041874 0.015760520473 0.017304429784 0.019397236407 0.014980009757 0.012249433435
          0.013215934858 0.016575790942 0.0082674203441 0.015793455765 0.020050795749 0.013870527968
          0.014989437535 0.018264362589 0.016903273761 0.014859091491 0.015953855589 0.016532331705
          0.017400946468 0.016905816272 0.016245462 0.017406113446 0.010742167942 0.015268634073
          0.014651441947 0.016710525379 0.015107220039 0.014240510762 0.017411321402 0.016034897417
          0.016986789182 0.015977371484 0.015206286684 0.015373794362 0.015346376225 0.016385516152
          0.018015705049 0.014422106557 0.016719637439 0.017495479435 0.017119536176 0.016815094277
          0.014512465335 0.018347084522 0.014803253114 0.014675201848 0.010416483507 0.016049312428
          0.018324818462 0.010208613239 0.012212778442 0.013910536654 0.013351959176 0.015260765329
          0.011406278238 0.01572159864 0.016959920526 0.014809837565 0.01697409153 0.013400498778
          0.017907043919 0.024026777595 0.026084346697 0.016096251085 0.0067982934415 -0.0043053966947
          -0.012029564939 -0.006949766539 0.012385358103 0.029027808458 0.043786890805 0.063365891576
          0.083244614303 0.10766120255 0.10489238054 0.13122595847 0.13583949208 0.19111467898
          0.13171666861 0.10759159178 0.10563591123 0.081051252782 0.059216093272 0.044724378735
          0.028390573338 0.0085493875667 0.00019670256006 -0.017153514549 -0.011246582493 -0.00032042848761
          0.019536934793 0.026945205405 0.025890657678 0.025719467551 0.023330684751 0.022419843823
          0.018185835332 0.0169270318 0.020720139146 0.023094817996 0.025708774105 0.023620542139
          0.0213244427 0.02442458272 0.023814976215 0.023699214682 0.017904380336 0.023055233061
          0.017614884302 0.02488816902 0.024611396715 0.022153174505 0.01943330653 0.018420502543
          0.023388540372 0.026308553293 0.024316664785 0.025201041251 0.023804066703 0.017987947911
          0.022370006889 0.017929071561 0.016462750733 0.023706577718 0.023144202307 0.019927404821
          0.020589765161 0.024042919278 0.018213490024 0.024404220283 0.027775827795 0.023854179308
          0.013599230908 0.00038416954339 -0.009432926774 -0.010674835183 -0.0047968332656 0.0093691647053
          0.025181572884 0.042865529656 0.061503358185 0.082679212093 0.081490941346 0.10536765307
          0.11088437587 0.085407145321 0.078934274614 0.062463440001 0.042068734765 0.028102340177
          0.0099768480286 0.012230636552 -0.00465532206 -0.014149032533 -0.007789708674 0.0016851655673
          0.015857679769 0.026885753497 0.025208020583 0.026448352262 0.024528192356 0.028755446896
          0.024055510759 0.024610634893 0.030128622428 0.024098515511 0.026631888002 0.029651159421
          0.028733791783 0.028002642095 0.031143886968 0.028379617259 0.028799042106 0.024988371879
          0.028267394751 0.017333026975 -2.1479978386e-05 -0.014848749153 -0.012469099835 -0.0035383044742